 vasp.5.3.5 31Mar14 (build May 09 2014 20:02:08) complex                        
  
 executed on             LinuxIFC date 2016.06.15  19:37:12
 running on   16 total cores
 distrk:  each k-point on   16 cores,    1 groups
 distr:  one band on NCORES_PER_BAND=   1 cores,   16 groups


--------------------------------------------------------------------------------------------------------


 INCAR:
 POTCAR:   PAW_PBE V_pv 07Sep2000                 
 POTCAR:   PAW_PBE N 08Apr2002                    

 ----------------------------------------------------------------------------- 
|                                                                             |
|           W    W    AA    RRRRR   N    N  II  N    N   GGGG   !!!           |
|           W    W   A  A   R    R  NN   N  II  NN   N  G    G  !!!           |
|           W    W  A    A  R    R  N N  N  II  N N  N  G       !!!           |
|           W WW W  AAAAAA  RRRRR   N  N N  II  N  N N  G  GGG   !            |
|           WW  WW  A    A  R   R   N   NN  II  N   NN  G    G                |
|           W    W  A    A  R    R  N    N  II  N    N   GGGG   !!!           |
|                                                                             |
|      For optimal performance we recommend to set                            |
|        NCORE= 4 - approx SQRT( number of cores)                             |
|      NCORE specifies how many cores store one orbital (NPAR=cpu/NCORE).     |
|      This setting can  greatly improve the performance of VASP for DFT.     |
|      The default, NPAR=number of cores might be grossly inefficient         |
|      on modern multi-core architectures or massively parallel machines.     |
|      Do your own testing !!!!                                               |
|      Unfortunately you need to use the default for GW and RPA calculations. |
|      (for HF NCORE is supported but not extensively tested yet)             |
|                                                                             |
 ----------------------------------------------------------------------------- 

 POTCAR:   PAW_PBE V_pv 07Sep2000                 
   VRHFIN =V: p6 d4 s1                                                          
   LEXCH  = PE                                                                  
   EATOM  =  1321.3402 eV,   97.1158 Ry                                         
                                                                                
   TITEL  = PAW_PBE V_pv 07Sep2000                                              
   LULTRA =        F    use ultrasoft PP ?                                      
   IUNSCR =        1    unscreen: 0-lin 1-nonlin 2-no                           
   RPACOR =    1.700    partial core radius                                     
   POMASS =   50.941; ZVAL   =   11.000    mass and valenz                      
   RCORE  =    2.300    outmost cutoff radius                                   
   RWIGS  =    2.300; RWIGS  =    1.217    wigner-seitz radius (au A)           
   ENMAX  =  263.675; ENMIN  =  197.756 eV                                      
   RCLOC  =    1.779    cutoff for local pot                                    
   LCOR   =        T    correct aug charges                                     
   LPAW   =        T    paw PP                                                  
   EAUG   =  598.473                                                            
   DEXC   =    -.006                                                            
   RMAX   =    2.839    core radius for proj-oper                               
   RAUG   =    1.300    factor for augmentation sphere                          
   RDEP   =    2.430    radius for radial grids                                 
   RDEPT  =    1.700    core radius for aug-charge                              
   QCUT   =   -4.402; QGAM   =    8.804    optimization parameters              
                                                                                
   Description                                                                  
     l     E      TYP  RCUT    TYP  RCUT                                        
     1   .000     23  2.000                                                     
     1   .400     23  2.000                                                     
     2   .000     23  2.300                                                     
     2   .000     23  2.300                                                     
     0   .000     23  2.300                                                     
     0  2.000     23  2.300                                                     
     3   .000      7   .000                                                     
  local pseudopotential read in
  partial core-charges read in
  atomic valenz-charges read in
  non local Contribution for L=           1  read in
    real space projection operators read in
  non local Contribution for L=           1  read in
    real space projection operators read in
  non local Contribution for L=           2  read in
    real space projection operators read in
  non local Contribution for L=           2  read in
    real space projection operators read in
  non local Contribution for L=           0  read in
    real space projection operators read in
  non local Contribution for L=           0  read in
    real space projection operators read in
    PAW grid and wavefunctions read in
 
   number of l-projection  operators is LMAX  =           6
   number of lm-projection operators is LMMAX =          18
 
 POTCAR:   PAW_PBE N 08Apr2002                    
   VRHFIN =N: s2p3                                                              
   LEXCH  = PE                                                                  
   EATOM  =   264.5486 eV,   19.4438 Ry                                         
                                                                                
   TITEL  = PAW_PBE N 08Apr2002                                                 
   LULTRA =        F    use ultrasoft PP ?                                      
   IUNSCR =        0    unscreen: 0-lin 1-nonlin 2-no                           
   RPACOR =     .000    partial core radius                                     
   POMASS =   14.001; ZVAL   =    5.000    mass and valenz                      
   RCORE  =    1.500    outmost cutoff radius                                   
   RWIGS  =    1.400; RWIGS  =     .741    wigner-seitz radius (au A)           
   ENMAX  =  400.000; ENMIN  =  300.000 eV                                      
   ICORE  =        2    local potential                                         
   LCOR   =        T    correct aug charges                                     
   LPAW   =        T    paw PP                                                  
   EAUG   =  627.112                                                            
   DEXC   =     .000                                                            
   RMAX   =    2.247    core radius for proj-oper                               
   RAUG   =    1.300    factor for augmentation sphere                          
   RDEP   =    1.514    radius for radial grids                                 
   QCUT   =   -5.562; QGAM   =   11.124    optimization parameters              
                                                                                
   Description                                                                  
     l     E      TYP  RCUT    TYP  RCUT                                        
     0   .000     23  1.200                                                     
     0   .000     23  1.200                                                     
     1   .000     23  1.500                                                     
     1   .700     23  1.500                                                     
     2   .000      7  1.500                                                     
  local pseudopotential read in
  atomic valenz-charges read in
  non local Contribution for L=           0  read in
    real space projection operators read in
  non local Contribution for L=           0  read in
    real space projection operators read in
  non local Contribution for L=           1  read in
    real space projection operators read in
  non local Contribution for L=           1  read in
    real space projection operators read in
    PAW grid and wavefunctions read in
 
   number of l-projection  operators is LMAX  =           4
   number of lm-projection operators is LMMAX =           8
 

 ----------------------------------------------------------------------------- 
|                                                                             |
|  ADVICE TO THIS USER RUNNING 'VASP/VAMP'   (HEAR YOUR MASTER'S VOICE ...):  |
|                                                                             |
|      You have a (more or less) 'large supercell' and for larger cells       |
|      it might be more efficient to use real space projection operators      |
|      So try LREAL= Auto  in the INCAR   file.                               |
|      Mind: If you want to do a very accurate calculations keep the          |
|      reciprocal projection scheme          (i.e. LREAL=.FALSE.)             |
|                                                                             |
 ----------------------------------------------------------------------------- 

 PAW_PBE V_pv 07Sep2000                 :
 energy of atom  1       EATOM=-1321.3402
 kinetic energy error for atom=    0.0045 (will be added to EATOM!!)
 PAW_PBE N 08Apr2002                    :
 energy of atom  2       EATOM= -264.5486
 kinetic energy error for atom=    0.0103 (will be added to EATOM!!)
 
 
 POSCAR: super cell                              
  positions in direct lattice
  No initial velocities read in
 exchange correlation table for  LEXCH =        8
   RHO(1)=    0.500       N(1)  =     2000
   RHO(2)=  100.500       N(2)  =     4000
 


--------------------------------------------------------------------------------------------------------


 ion  position               nearest neighbor table
   1  0.003  0.000  0.000-  77 2.03 113 2.03  68 2.06 125 2.06 116 2.09  80 2.09   2 2.88  17 2.90
                            50 2.90   5 2.90  14 2.90  29 2.92  53 2.92
   2  0.250  0.000  0.000-  65 2.06  77 2.06  78 2.06 113 2.06 114 2.06 126 2.06   1 2.88  18 2.92
                            30 2.92  50 2.92  51 2.92  54 2.92   3 2.92   5 2.92   6 2.92  14 2.92
   3  0.500  0.000  0.000-  66 2.06  78 2.06  79 2.06 114 2.06 115 2.06 127 2.06  18 2.92  19 2.92
                            31 2.92  51 2.92  52 2.92  55 2.92   2 2.92   4 2.92   6 2.92   7 2.92
   4  0.750  0.000  0.000-  67 2.06  79 2.06  80 2.06 115 2.06 116 2.06 128 2.06  20 2.92  32 2.92
                            49 2.92  52 2.92  56 2.92   3 2.92   7 2.92   8 2.92  13 2.92  16 2.92
   5  0.000  0.250  0.000-  65 2.06  68 2.06  72 2.06 113 2.06 117 2.06 120 2.06   1 2.90  21 2.92
                            24 2.92  53 2.92  54 2.92  57 2.92   2 2.92   6 2.92   8 2.92   9 2.92
   6  0.250  0.250  0.000-  65 2.06  66 2.06  69 2.06 114 2.06 117 2.06 118 2.06  18 2.92  21 2.92
                            22 2.92  54 2.92  55 2.92  58 2.92   2 2.92   3 2.92   5 2.92   7 2.92
   7  0.500  0.250  0.000-  66 2.06  67 2.06  70 2.06 115 2.06 118 2.06 119 2.06  19 2.92  22 2.92
                            23 2.92  55 2.92  56 2.92  59 2.92   3 2.92   4 2.92   6 2.92   8 2.92
   8  0.750  0.250  0.000-  67 2.06  68 2.06  71 2.06 116 2.06 119 2.06 120 2.06  23 2.92  24 2.92
                            53 2.92  56 2.92  60 2.92   4 2.92   5 2.92   7 2.92  11 2.92  12 2.92
   9  0.000  0.500  0.000-  69 2.06  72 2.06  76 2.06 117 2.06 121 2.06 124 2.06  21 2.92  25 2.92
                            28 2.92  57 2.92  58 2.92  61 2.92   5 2.92   6 2.92  10 2.92  12 2.92
  10  0.250  0.500  0.000-  69 2.06  70 2.06  73 2.06 118 2.06 121 2.06 122 2.06  22 2.92  25 2.92
                            26 2.92  58 2.92  59 2.92  62 2.92   6 2.92   7 2.92   9 2.92  11 2.92
  11  0.500  0.500  0.000-  70 2.06  71 2.06  74 2.06 119 2.06 122 2.06 123 2.06  23 2.92  26 2.92
                            27 2.92  59 2.92  60 2.92  63 2.92   7 2.92   8 2.92  10 2.92  12 2.92
  12  0.750  0.500  0.000-  71 2.06  72 2.06  75 2.06 120 2.06 123 2.06 124 2.06  24 2.92  27 2.92
                            28 2.92  57 2.92  60 2.92  64 2.92   5 2.92   8 2.92   9 2.92  11 2.92
  13  0.000  0.750  0.000-  73 2.06  76 2.06  80 2.06 121 2.06 125 2.06 128 2.06  29 2.92  32 2.92
                            49 2.92  61 2.92  62 2.92   4 2.92   9 2.92  10 2.92  14 2.92  16 2.92
  14  0.250  0.750  0.000-  73 2.06  74 2.06  77 2.06 122 2.06 125 2.06 126 2.06   1 2.90  29 2.92
                            30 2.92  50 2.92  62 2.92  63 2.92   2 2.92  10 2.92  11 2.92  13 2.92
  15  0.500  0.750  0.000-  74 2.06  75 2.06  78 2.06 123 2.06 126 2.06 127 2.06  27 2.92  30 2.92
                            31 2.92  51 2.92  63 2.92  64 2.92   2 2.92   3 2.92  11 2.92  12 2.92
  16  0.750  0.750  0.000-  75 2.06  76 2.06  79 2.06 124 2.06 127 2.06 128 2.06  28 2.92  31 2.92
                            32 2.92  52 2.92  61 2.92  64 2.92   3 2.92   4 2.92   9 2.92  12 2.92
  17  0.000  0.000  0.250-  65 2.06  68 2.06  77 2.06  84 2.06  93 2.06  96 2.06   1 2.90  29 2.92
                            30 2.92  33 2.92  36 2.92  45 2.92   2 2.92   5 2.92  18 2.92  20 2.92
  18  0.250  0.000  0.250-  65 2.06  66 2.06  78 2.06  81 2.06  93 2.06  94 2.06  22 2.92  30 2.92
                            31 2.92  33 2.92  34 2.92  46 2.92   2 2.92   3 2.92   6 2.92  17 2.92
  19  0.500  0.000  0.250-  66 2.06  67 2.06  79 2.06  82 2.06  94 2.06  95 2.06  23 2.92  31 2.92
                            32 2.92  34 2.92  35 2.92  47 2.92   3 2.92   4 2.92   7 2.92  18 2.92
  20  0.750  0.000  0.250-  67 2.06  68 2.06  80 2.06  83 2.06  95 2.06  96 2.06  29 2.92  32 2.92
                            35 2.92  36 2.92  48 2.92   4 2.92   8 2.92  17 2.92  19 2.92  23 2.92
  21  0.000  0.250  0.250-  65 2.06  69 2.06  72 2.06  81 2.06  84 2.06  88 2.06  24 2.92  25 2.92
                            28 2.92  33 2.92  37 2.92  40 2.92   5 2.92   6 2.92   9 2.92  17 2.92
  22  0.250  0.250  0.250-  66 2.06  69 2.06  70 2.06  81 2.06  82 2.06  85 2.06  23 2.92  25 2.92
                            26 2.92  34 2.92  37 2.92  38 2.92   6 2.92   7 2.92  10 2.92  18 2.92
  23  0.500  0.250  0.250-  67 2.06  70 2.06  71 2.06  82 2.06  83 2.06  86 2.06  24 2.92  26 2.92
                            27 2.92  35 2.92  38 2.92  39 2.92   7 2.92   8 2.92  11 2.92  19 2.92
  24  0.750  0.250  0.250-  68 2.06  71 2.06  72 2.06  83 2.06  84 2.06  87 2.06  23 2.92  27 2.92
                            28 2.92  36 2.92  39 2.92  40 2.92   5 2.92   8 2.92  12 2.92  17 2.92
  25  0.000  0.500  0.250-  69 2.06  73 2.06  76 2.06  85 2.06  88 2.06  92 2.06  28 2.92  29 2.92
                            32 2.92  37 2.92  41 2.92  44 2.92   9 2.92  10 2.92  13 2.92  21 2.92
  26  0.250  0.500  0.250-  70 2.06  73 2.06  74 2.06  85 2.06  86 2.06  89 2.06  27 2.92  29 2.92
                            30 2.92  38 2.92  41 2.92  42 2.92  10 2.92  11 2.92  14 2.92  22 2.92
  27  0.500  0.500  0.250-  71 2.06  74 2.06  75 2.06  86 2.06  87 2.06  90 2.06  28 2.92  30 2.92
                            31 2.92  39 2.92  42 2.92  43 2.92  11 2.92  12 2.92  15 2.92  23 2.92
  28  0.750  0.500  0.250-  72 2.06  75 2.06  76 2.06  87 2.06  88 2.06  91 2.06  27 2.92  31 2.92
                            32 2.92  40 2.92  43 2.92  44 2.92   9 2.92  12 2.92  16 2.92  21 2.92
  29  0.000  0.750  0.250-  73 2.06  77 2.06  80 2.06  89 2.06  92 2.06  96 2.06  30 2.92  32 2.92
                            41 2.92  45 2.92  48 2.92  13 2.92  14 2.92  17 2.92  20 2.92  25 2.92
  30  0.250  0.750  0.250-  74 2.06  77 2.06  78 2.06  89 2.06  90 2.06  93 2.06  27 2.92  29 2.92
                            31 2.92  42 2.92  45 2.92  46 2.92   2 2.92  14 2.92  15 2.92  17 2.92
  31  0.500  0.750  0.250-  75 2.06  78 2.06  79 2.06  90 2.06  91 2.06  94 2.06  28 2.92  30 2.92
                            32 2.92  43 2.92  46 2.92  47 2.92   3 2.92  15 2.92  16 2.92  18 2.92
  32  0.750  0.750  0.250-  76 2.06  79 2.06  80 2.06  91 2.06  92 2.06  95 2.06  28 2.92  29 2.92
                            31 2.92  44 2.92  47 2.92  48 2.92   4 2.92  13 2.92  16 2.92  19 2.92
  33  0.000  0.000  0.500-  81 2.06  84 2.06  93 2.06 100 2.06 109 2.06 112 2.06  40 2.92  45 2.92
                            46 2.92  49 2.92  52 2.92  61 2.92  17 2.92  18 2.92  21 2.92  34 2.92
  34  0.250  0.000  0.500-  81 2.06  82 2.06  94 2.06  97 2.06 109 2.06 110 2.06  38 2.92  46 2.92
                            47 2.92  49 2.92  50 2.92  62 2.92  18 2.92  19 2.92  22 2.92  33 2.92
  35  0.500  0.000  0.500-  82 2.06  83 2.06  95 2.06  98 2.06 110 2.06 111 2.06  39 2.92  47 2.92
                            48 2.92  50 2.92  51 2.92  63 2.92  19 2.92  20 2.92  23 2.92  34 2.92
  36  0.750  0.000  0.500-  83 2.06  84 2.06  96 2.06  99 2.06 111 2.06 112 2.06  40 2.92  45 2.92
                            48 2.92  51 2.92  52 2.92  64 2.92  17 2.92  20 2.92  24 2.92  33 2.92
  37  0.000  0.250  0.500-  81 2.06  85 2.06  88 2.06  97 2.06 100 2.06 104 2.06  40 2.92  41 2.92
                            44 2.92  49 2.92  53 2.92  56 2.92  21 2.92  22 2.92  25 2.92  33 2.92
  38  0.250  0.250  0.500-  82 2.06  85 2.06  86 2.06  97 2.06  98 2.06 101 2.06  39 2.92  41 2.92
                            42 2.92  50 2.92  53 2.92  54 2.92  22 2.92  23 2.92  26 2.92  34 2.92
  39  0.500  0.250  0.500-  83 2.06  86 2.06  87 2.06  98 2.06  99 2.06 102 2.06  40 2.92  42 2.92
                            43 2.92  51 2.92  54 2.92  55 2.92  23 2.92  24 2.92  27 2.92  35 2.92
  40  0.750  0.250  0.500-  84 2.06  87 2.06  88 2.06  99 2.06 100 2.06 103 2.06  39 2.92  43 2.92
                            44 2.92  52 2.92  55 2.92  56 2.92  21 2.92  24 2.92  28 2.92  33 2.92
  41  0.000  0.500  0.500-  85 2.06  89 2.06  92 2.06 101 2.06 104 2.06 108 2.06  44 2.92  45 2.92
                            48 2.92  53 2.92  57 2.92  60 2.92  25 2.92  26 2.92  29 2.92  37 2.92
  42  0.250  0.500  0.500-  86 2.06  89 2.06  90 2.06 101 2.06 102 2.06 105 2.06  43 2.92  45 2.92
                            46 2.92  54 2.92  57 2.92  58 2.92  26 2.92  27 2.92  30 2.92  38 2.92
  43  0.500  0.500  0.500-  87 2.06  90 2.06  91 2.06 102 2.06 103 2.06 106 2.06  44 2.92  46 2.92
                            47 2.92  55 2.92  58 2.92  59 2.92  27 2.92  28 2.92  31 2.92  39 2.92
  44  0.750  0.500  0.500-  88 2.06  91 2.06  92 2.06 103 2.06 104 2.06 107 2.06  43 2.92  47 2.92
                            48 2.92  56 2.92  59 2.92  60 2.92  25 2.92  28 2.92  32 2.92  37 2.92
  45  0.000  0.750  0.500-  89 2.06  93 2.06  96 2.06 105 2.06 108 2.06 112 2.06  42 2.92  46 2.92
                            48 2.92  57 2.92  61 2.92  64 2.92  17 2.92  29 2.92  30 2.92  33 2.92
  46  0.250  0.750  0.500-  90 2.06  93 2.06  94 2.06 105 2.06 106 2.06 109 2.06  43 2.92  45 2.92
                            47 2.92  58 2.92  61 2.92  62 2.92  18 2.92  30 2.92  31 2.92  33 2.92
  47  0.500  0.750  0.500-  91 2.06  94 2.06  95 2.06 106 2.06 107 2.06 110 2.06  44 2.92  46 2.92
                            48 2.92  59 2.92  62 2.92  63 2.92  19 2.92  31 2.92  32 2.92  34 2.92
  48  0.750  0.750  0.500-  92 2.06  95 2.06  96 2.06 107 2.06 108 2.06 111 2.06  44 2.92  45 2.92
                            47 2.92  60 2.92  63 2.92  64 2.92  20 2.92  29 2.92  32 2.92  35 2.92
  49  0.000  0.000  0.750-  97 2.06 100 2.06 109 2.06 116 2.06 125 2.06 128 2.06  52 2.92  53 2.92
                            56 2.92  61 2.92  62 2.92   4 2.92  13 2.92  33 2.92  34 2.92  37 2.92
  50  0.250  0.000  0.750-  97 2.06  98 2.06 110 2.06 113 2.06 125 2.06 126 2.06   1 2.90  51 2.92
                            53 2.92  54 2.92  62 2.92  63 2.92   2 2.92  14 2.92  34 2.92  35 2.92
  51  0.500  0.000  0.750-  98 2.06  99 2.06 111 2.06 114 2.06 126 2.06 127 2.06  50 2.92  52 2.92
                            54 2.92  55 2.92  63 2.92  64 2.92   2 2.92   3 2.92  15 2.92  35 2.92
  52  0.750  0.000  0.750-  99 2.06 100 2.06 112 2.06 115 2.06 127 2.06 128 2.06  49 2.92  51 2.92
                            55 2.92  56 2.92  61 2.92  64 2.92   3 2.92   4 2.92  16 2.92  33 2.92
  53  0.000  0.250  0.750-  97 2.06 101 2.06 104 2.06 113 2.06 116 2.06 120 2.06  50 2.92  54 2.92
                            56 2.92  57 2.92  60 2.92   5 2.92   8 2.92  37 2.92  38 2.92  41 2.92
  54  0.250  0.250  0.750-  98 2.06 101 2.06 102 2.06 113 2.06 114 2.06 117 2.06  50 2.92  51 2.92
                            53 2.92  55 2.92  57 2.92  58 2.92   2 2.92   5 2.92   6 2.92  38 2.92
  55  0.500  0.250  0.750-  99 2.06 102 2.06 103 2.06 114 2.06 115 2.06 118 2.06  51 2.92  52 2.92
                            54 2.92  56 2.92  58 2.92  59 2.92   3 2.92   6 2.92   7 2.92  39 2.92
  56  0.750  0.250  0.750- 100 2.06 103 2.06 104 2.06 115 2.06 116 2.06 119 2.06  49 2.92  52 2.92
                            53 2.92  55 2.92  59 2.92  60 2.92   4 2.92   7 2.92   8 2.92  37 2.92
  57  0.000  0.500  0.750- 101 2.06 105 2.06 108 2.06 117 2.06 120 2.06 124 2.06  53 2.92  54 2.92
                            58 2.92  60 2.92  61 2.92  64 2.92   5 2.92   9 2.92  12 2.92  41 2.92
  58  0.250  0.500  0.750- 102 2.06 105 2.06 106 2.06 117 2.06 118 2.06 121 2.06  54 2.92  55 2.92
                            57 2.92  59 2.92  61 2.92  62 2.92   6 2.92   9 2.92  10 2.92  42 2.92
  59  0.500  0.500  0.750- 103 2.06 106 2.06 107 2.06 118 2.06 119 2.06 122 2.06  55 2.92  56 2.92
                            58 2.92  60 2.92  62 2.92  63 2.92   7 2.92  10 2.92  11 2.92  43 2.92
  60  0.750  0.500  0.750- 104 2.06 107 2.06 108 2.06 119 2.06 120 2.06 123 2.06  53 2.92  56 2.92
                            57 2.92  59 2.92  63 2.92  64 2.92   8 2.92  11 2.92  12 2.92  41 2.92
  61  0.000  0.750  0.750- 105 2.06 109 2.06 112 2.06 121 2.06 124 2.06 128 2.06  49 2.92  52 2.92
                            57 2.92  58 2.92  62 2.92  64 2.92   9 2.92  13 2.92  16 2.92  33 2.92
  62  0.250  0.750  0.750- 106 2.06 109 2.06 110 2.06 121 2.06 122 2.06 125 2.06  49 2.92  50 2.92
                            58 2.92  59 2.92  61 2.92  63 2.92  10 2.92  13 2.92  14 2.92  34 2.92
  63  0.500  0.750  0.750- 107 2.06 110 2.06 111 2.06 122 2.06 123 2.06 126 2.06  50 2.92  51 2.92
                            59 2.92  60 2.92  62 2.92  64 2.92  11 2.92  14 2.92  15 2.92  35 2.92
  64  0.750  0.750  0.750- 108 2.06 111 2.06 112 2.06 123 2.06 124 2.06 127 2.06  51 2.92  52 2.92
                            57 2.92  60 2.92  61 2.92  63 2.92  12 2.92  15 2.92  16 2.92  36 2.92
  65  0.125  0.125  0.125-   2 2.06   5 2.06   6 2.06  17 2.06  18 2.06  21 2.06
  66  0.375  0.125  0.125-   3 2.06   6 2.06   7 2.06  18 2.06  19 2.06  22 2.06
  67  0.625  0.125  0.125-   4 2.06   7 2.06   8 2.06  19 2.06  20 2.06  23 2.06
  68  0.875  0.125  0.125-   5 2.06   8 2.06  17 2.06  20 2.06  24 2.06   1 2.06
  69  0.125  0.375  0.125-   6 2.06   9 2.06  10 2.06  21 2.06  22 2.06  25 2.06
  70  0.375  0.375  0.125-   7 2.06  10 2.06  11 2.06  22 2.06  23 2.06  26 2.06
  71  0.625  0.375  0.125-   8 2.06  11 2.06  12 2.06  23 2.06  24 2.06  27 2.06
  72  0.875  0.375  0.125-   5 2.06   9 2.06  12 2.06  21 2.06  24 2.06  28 2.06
  73  0.125  0.625  0.125-  10 2.06  13 2.06  14 2.06  25 2.06  26 2.06  29 2.06
  74  0.375  0.625  0.125-  11 2.06  14 2.06  15 2.06  26 2.06  27 2.06  30 2.06
  75  0.625  0.625  0.125-  12 2.06  15 2.06  16 2.06  27 2.06  28 2.06  31 2.06
  76  0.875  0.625  0.125-   9 2.06  13 2.06  16 2.06  25 2.06  28 2.06  32 2.06
  77  0.125  0.875  0.125-   1 2.03   2 2.06  14 2.06  17 2.06  29 2.06  30 2.06
  78  0.375  0.875  0.125-   2 2.06   3 2.06  15 2.06  18 2.06  30 2.06  31 2.06
  79  0.625  0.875  0.125-   3 2.06   4 2.06  16 2.06  19 2.06  31 2.06  32 2.06
  80  0.875  0.875  0.125-   4 2.06  13 2.06  20 2.06  29 2.06  32 2.06   1 2.09
  81  0.125  0.125  0.375-  18 2.06  21 2.06  22 2.06  33 2.06  34 2.06  37 2.06
  82  0.375  0.125  0.375-  19 2.06  22 2.06  23 2.06  34 2.06  35 2.06  38 2.06
  83  0.625  0.125  0.375-  20 2.06  23 2.06  24 2.06  35 2.06  36 2.06  39 2.06
  84  0.875  0.125  0.375-  17 2.06  21 2.06  24 2.06  33 2.06  36 2.06  40 2.06
  85  0.125  0.375  0.375-  22 2.06  25 2.06  26 2.06  37 2.06  38 2.06  41 2.06
  86  0.375  0.375  0.375-  23 2.06  26 2.06  27 2.06  38 2.06  39 2.06  42 2.06
  87  0.625  0.375  0.375-  24 2.06  27 2.06  28 2.06  39 2.06  40 2.06  43 2.06
  88  0.875  0.375  0.375-  21 2.06  25 2.06  28 2.06  37 2.06  40 2.06  44 2.06
  89  0.125  0.625  0.375-  26 2.06  29 2.06  30 2.06  41 2.06  42 2.06  45 2.06
  90  0.375  0.625  0.375-  27 2.06  30 2.06  31 2.06  42 2.06  43 2.06  46 2.06
  91  0.625  0.625  0.375-  28 2.06  31 2.06  32 2.06  43 2.06  44 2.06  47 2.06
  92  0.875  0.625  0.375-  25 2.06  29 2.06  32 2.06  41 2.06  44 2.06  48 2.06
  93  0.125  0.875  0.375-  17 2.06  18 2.06  30 2.06  33 2.06  45 2.06  46 2.06
  94  0.375  0.875  0.375-  18 2.06  19 2.06  31 2.06  34 2.06  46 2.06  47 2.06
  95  0.625  0.875  0.375-  19 2.06  20 2.06  32 2.06  35 2.06  47 2.06  48 2.06
  96  0.875  0.875  0.375-  17 2.06  20 2.06  29 2.06  36 2.06  45 2.06  48 2.06
  97  0.125  0.125  0.625-  34 2.06  37 2.06  38 2.06  49 2.06  50 2.06  53 2.06
  98  0.375  0.125  0.625-  35 2.06  38 2.06  39 2.06  50 2.06  51 2.06  54 2.06
  99  0.625  0.125  0.625-  36 2.06  39 2.06  40 2.06  51 2.06  52 2.06  55 2.06
 100  0.875  0.125  0.625-  33 2.06  37 2.06  40 2.06  49 2.06  52 2.06  56 2.06
 101  0.125  0.375  0.625-  38 2.06  41 2.06  42 2.06  53 2.06  54 2.06  57 2.06
 102  0.375  0.375  0.625-  39 2.06  42 2.06  43 2.06  54 2.06  55 2.06  58 2.06
 103  0.625  0.375  0.625-  40 2.06  43 2.06  44 2.06  55 2.06  56 2.06  59 2.06
 104  0.875  0.375  0.625-  37 2.06  41 2.06  44 2.06  53 2.06  56 2.06  60 2.06
 105  0.125  0.625  0.625-  42 2.06  45 2.06  46 2.06  57 2.06  58 2.06  61 2.06
 106  0.375  0.625  0.625-  43 2.06  46 2.06  47 2.06  58 2.06  59 2.06  62 2.06
 107  0.625  0.625  0.625-  44 2.06  47 2.06  48 2.06  59 2.06  60 2.06  63 2.06
 108  0.875  0.625  0.625-  41 2.06  45 2.06  48 2.06  57 2.06  60 2.06  64 2.06
 109  0.125  0.875  0.625-  33 2.06  34 2.06  46 2.06  49 2.06  61 2.06  62 2.06
 110  0.375  0.875  0.625-  34 2.06  35 2.06  47 2.06  50 2.06  62 2.06  63 2.06
 111  0.625  0.875  0.625-  35 2.06  36 2.06  48 2.06  51 2.06  63 2.06  64 2.06
 112  0.875  0.875  0.625-  33 2.06  36 2.06  45 2.06  52 2.06  61 2.06  64 2.06
 113  0.125  0.125  0.875-   1 2.03   2 2.06   5 2.06  50 2.06  53 2.06  54 2.06
 114  0.375  0.125  0.875-   2 2.06   3 2.06   6 2.06  51 2.06  54 2.06  55 2.06
 115  0.625  0.125  0.875-   3 2.06   4 2.06   7 2.06  52 2.06  55 2.06  56 2.06
 116  0.875  0.125  0.875-   4 2.06   8 2.06  49 2.06  53 2.06  56 2.06   1 2.09
 117  0.125  0.375  0.875-   5 2.06   6 2.06   9 2.06  54 2.06  57 2.06  58 2.06
 118  0.375  0.375  0.875-   6 2.06   7 2.06  10 2.06  55 2.06  58 2.06  59 2.06
 119  0.625  0.375  0.875-   7 2.06   8 2.06  11 2.06  56 2.06  59 2.06  60 2.06
 120  0.875  0.375  0.875-   5 2.06   8 2.06  12 2.06  53 2.06  57 2.06  60 2.06
 121  0.125  0.625  0.875-   9 2.06  10 2.06  13 2.06  58 2.06  61 2.06  62 2.06
 122  0.375  0.625  0.875-  10 2.06  11 2.06  14 2.06  59 2.06  62 2.06  63 2.06
 123  0.625  0.625  0.875-  11 2.06  12 2.06  15 2.06  60 2.06  63 2.06  64 2.06
 124  0.875  0.625  0.875-   9 2.06  12 2.06  16 2.06  57 2.06  61 2.06  64 2.06
 125  0.125  0.875  0.875-  13 2.06  14 2.06  49 2.06  50 2.06  62 2.06   1 2.06
 126  0.375  0.875  0.875-   2 2.06  14 2.06  15 2.06  50 2.06  51 2.06  63 2.06
 127  0.625  0.875  0.875-   3 2.06  15 2.06  16 2.06  51 2.06  52 2.06  64 2.06
 128  0.875  0.875  0.875-   4 2.06  13 2.06  16 2.06  49 2.06  52 2.06  61 2.06
 
  LATTYP: Found a face centered cubic cell.
 ALAT       =    16.4982000000
  
  Lattice vectors:
  
 A1 = (   0.0000000000,   8.2491000000,   8.2491000000)
 A2 = (   8.2491000000,   0.0000000000,   8.2491000000)
 A3 = (   8.2491000000,   8.2491000000,   0.0000000000)


Analysis of symmetry for initial positions (statically):
=====================================================================
 Subroutine PRICEL returns:
 Original cell was already a primitive cell.
 

 Routine SETGRP: Setting up the symmetry group for a 
 face centered cubic supercell.


 Subroutine GETGRP returns: Found  4 space group operations
 (whereof  4 operations were pure point group operations)
 out of a pool of 48 trial point group operations.


The static configuration has the point symmetry C_2v.


Analysis of symmetry for dynamics (positions and initial velocities):
=====================================================================
 Subroutine PRICEL returns:
 Original cell was already a primitive cell.
 

 Routine SETGRP: Setting up the symmetry group for a 
 face centered cubic supercell.


 Subroutine GETGRP returns: Found  4 space group operations
 (whereof  4 operations were pure point group operations)
 out of a pool of 48 trial point group operations.


The dynamic configuration has the point symmetry C_2v.
 
 
 KPOINTS: SiO test                                

Automatic generation of k-mesh.
Space group operators:
 irot       det(A)        alpha          n_x          n_y          n_z        tau_x        tau_y        tau_z
    1     1.000000     0.000000     1.000000     0.000000     0.000000     0.000000     0.000000     0.000000
    2     1.000000   180.000000     0.000000     0.707107     0.707107     0.000000     0.000000     0.000000
    3    -1.000000   180.000000     1.000000     0.000000     0.000000     0.000000     0.000000     0.000000
    4    -1.000000   180.000000     0.000000    -0.707107     0.707107     0.000000     0.000000     0.000000
 
 Subroutine IBZKPT returns following result:
 ===========================================
 
 Found      5 irreducible k-points:
 
 Following reciprocal coordinates:
            Coordinates               Weight
  0.000000  0.000000  0.000000      1.000000
  0.500000  0.000000  0.000000      2.000000
  0.000000  0.500000  0.000000      2.000000
  0.500000  0.500000  0.000000      2.000000
  0.000000  0.500000  0.500000      1.000000
 
 Following cartesian coordinates:
            Coordinates               Weight
  0.000000  0.000000  0.000000      1.000000
 -0.125000  0.125000  0.125000      2.000000
  0.125000 -0.125000  0.125000      2.000000
  0.000000  0.000000  0.250000      2.000000
  0.250000  0.000000  0.000000      1.000000
 


--------------------------------------------------------------------------------------------------------




 Dimension of arrays:
   k-points           NKPTS =      5   k-points in BZ     NKDIM =      5   number of bands    NBANDS=    624
   number of dos      NEDOS =    301   number of ions     NIONS =    128
   non local maximal  LDIM  =      6   non local SUM 2l+1 LMDIM =     18
   total plane-waves  NPLWV = 884736
   max r-space proj   IRMAX =      1   max aug-charges    IRDMAX= 177559
   dimension x,y,z NGX =    96 NGY =   96 NGZ =   96
   dimension x,y,z NGXF=   192 NGYF=  192 NGZF=  192
   support grid    NGXF=   384 NGYF=  384 NGZF=  384
   ions per type =              64  64
 NGX,Y,Z   is equivalent  to a cutoff of  13.68, 13.68, 13.68 a.u.
 NGXF,Y,Z  is equivalent  to a cutoff of  27.36, 27.36, 27.36 a.u.


 I would recommend the setting:
   dimension x,y,z NGX =    93 NGY =   93 NGZ =   93
 SYSTEM =  unknown system                          
 POSCAR =  super cell                              

 Startparameter for this run:
   NWRITE =      2    write-flag & timer
   PREC   = accura    normal or accurate (medium, high low for compatibility)
   ISTART =      0    job   : 0-new  1-cont  2-samecut
   ICHARG =      2    charge: 1-file 2-atom 10-const
   ISPIN  =      1    spin polarized calculation?
   LNONCOLLINEAR =      F non collinear calculations
   LSORBIT =      F    spin-orbit coupling
   INIWAV =      1    electr: 0-lowe 1-rand  2-diag
   LASPH  =      F    aspherical Exc in radial PAW
   METAGGA=      F    non-selfconsistent MetaGGA calc.

 Electronic Relaxation 1
   ENCUT  =  600.0 eV  44.10 Ry    6.64 a.u.  23.30 23.30 23.30*2*pi/ulx,y,z
   ENINI  =  600.0     initial cutoff
   ENAUG  =  627.1 eV  augmentation charge cutoff
   NELM   =     60;   NELMIN=  2; NELMDL= -5     # of ELM steps 
   EDIFF  = 0.1E-07   stopping-criterion for ELM
   LREAL  =      F    real-space projection
   NLSPLINE    = F    spline interpolate recip. space projectors
   LCOMPAT=      F    compatible to vasp.4.4
   GGA_COMPAT  = T    GGA compatible to vasp.4.4-vasp.4.6
   LMAXPAW     = -100 max onsite density
   LMAXMIX     =    2 max onsite mixed and CHGCAR
   VOSKOWN=      0    Vosko Wilk Nusair interpolation
   ROPT   =    0.00000   0.00000
 Ionic relaxation
   EDIFFG = 0.1E-06   stopping-criterion for IOM
   NSW    =      0    number of steps for IOM
   NBLOCK =      1;   KBLOCK =      1    inner block; outer block 
   IBRION =     -1    ionic relax: 0-MD 1-quasi-New 2-CG
   NFREE  =      0    steps in history (QN), initial steepest desc. (CG)
   ISIF   =      2    stress and relaxation
   IWAVPR =     10    prediction:  0-non 1-charg 2-wave 3-comb
   ISYM   =      2    0-nonsym 1-usesym 2-fastsym
   LCORR  =      T    Harris-Foulkes like correction to forces

   POTIM  = 0.5000    time-step for ionic-motion
   TEIN   =    0.0    initial temperature
   TEBEG  =    0.0;   TEEND  =   0.0 temperature during run
   SMASS  =  -3.00    Nose mass-parameter (am)
   estimated Nose-frequenzy (Omega)   =  0.10E-29 period in steps =****** mass=  -0.311E-26a.u.
   SCALEE = 1.0000    scale energy and forces
   NPACO  =    256;   APACO  = 16.0  distance and # of slots for P.C.
   PSTRESS=    0.0 pullay stress

  Mass of Ions in am
   POMASS =  50.94 14.00
  Ionic Valenz
   ZVAL   =  11.00  5.00
  Atomic Wigner-Seitz radii
   RWIGS  =  -1.00 -1.00
  virtual crystal weights 
   VCA    =   1.00  1.00
   NELECT =    1024.0000    total number of electrons
   NUPDOWN=      -1.0000    fix difference up-down

 DOS related values:
   EMIN   =  10.00;   EMAX   =-10.00  energy-range for DOS
   EFERMI =   0.00
   ISMEAR =     0;   SIGMA  =   0.01  broadening in eV -4-tet -1-fermi 0-gaus

 Electronic relaxation 2 (details)
   IALGO  =     38    algorithm
   LDIAG  =      T    sub-space diagonalisation (order eigenvalues)
   LSUBROT=      F    optimize rotation matrix (better conditioning)
   TURBO    =      0    0=normal 1=particle mesh
   IRESTART =      0    0=no restart 2=restart with 2 vectors
   NREBOOT  =      0    no. of reboots
   NMIN     =      0    reboot dimension
   EREF     =   0.00    reference energy to select bands
   IMIX   =      4    mixing-type and parameters
     AMIX     =   0.40;   BMIX     =  1.00
     AMIX_MAG =   1.60;   BMIX_MAG =  1.00
     AMIN     =   0.10
     WC   =   100.;   INIMIX=   1;  MIXPRE=   1;  MAXMIX= -45

 Intra band minimization:
   WEIMIN = 0.0000     energy-eigenvalue tresh-hold
   EBREAK =  0.40E-11  absolut break condition
   DEPER  =   0.30     relativ break condition  

   TIME   =   0.40     timestep for ELM

  volume/ion in A,a.u.               =       8.77        59.19
  Fermi-wavevector in a.u.,A,eV,Ry     =   1.587663  3.000248 34.295837  2.520673
  Thomas-Fermi vector in A             =   2.686786
 
 Write flags
   LWAVE  =      F    write WAVECAR
   LCHARG =      F    write CHGCAR
   LVTOT  =      F    write LOCPOT, total local potential
   LVHAR  =      F    write LOCPOT, Hartree potential only
   LELF   =      F    write electronic localiz. function (ELF)
   LORBIT =      0    0 simple, 1 ext, 2 COOP (PROOUT)


 Dipole corrections
   LMONO  =      F    monopole corrections only (constant potential shift)
   LDIPOL =      F    correct potential (dipole corrections)
   IDIPOL =      0    1-x, 2-y, 3-z, 4-all directions 
   EPSILON=  1.0000000 bulk dielectric constant

 Exchange correlation treatment:
   GGA     =    --    GGA type
   LEXCH   =     8    internal setting for exchange type
   VOSKOWN=      0    Vosko Wilk Nusair interpolation
   LHFCALC =     F    Hartree Fock is set to
   LHFONE  =     F    Hartree Fock one center treatment
   AEXX    =    0.0000 exact exchange contribution

 Linear response parameters
   LEPSILON=     F    determine dielectric tensor
   LRPA    =     F    only Hartree local field effects (RPA)
   LNABLA  =     F    use nabla operator in PAW spheres
   LVEL    =     F    velocity operator in full k-point grid
   LINTERFAST=   F  fast interpolation
   KINTER  =     0    interpolate to denser k-point grid
   CSHIFT  =0.1000    complex shift for real part using Kramers Kronig
   OMEGAMAX=  -1.0    maximum frequency
   DEG_THRESHOLD= 0.2000000E-02 threshold for treating states as degnerate
   RTIME   =    0.100 relaxation time in fs

 Orbital magnetization related:
   ORBITALMAG=     F  switch on orbital magnetization
   LCHIMAG   =     F  perturbation theory with respect to B field
   DQ        =  0.001000  dq finite difference perturbation B field



--------------------------------------------------------------------------------------------------------


 Static calculation
 charge density and potential will be updated during run
 non-spin polarized calculation
 Variant of blocked Davidson
 Davidson routine will perform the subspace rotation
 perform sub-space diagonalisation
    after iterative eigenvector-optimisation
 modified Broyden-mixing scheme, WC =      100.0
 initial mixing is a Kerker type mixing with AMIX =  0.4000 and BMIX =      1.0000
 Hartree-type preconditioning will be used
 using additional bands          112
 reciprocal scheme for non local part
 use partial core corrections
 calculate Harris-corrections to forces 
   (improved forces if not selfconsistent)
 use gradient corrections 
 use of overlap-Matrix (Vanderbilt PP)
 Gauss-broadening in eV      SIGMA  =   0.01


--------------------------------------------------------------------------------------------------------


  energy-cutoff  :      600.00
  volume of cell :     1122.66
      direct lattice vectors                 reciprocal lattice vectors
     0.000000000  8.249100000  8.249100000    -0.060612673  0.060612673  0.060612673
     8.249100000  0.000000000  8.249100000     0.060612673 -0.060612673  0.060612673
     8.249100000  8.249100000  0.000000000     0.060612673  0.060612673 -0.060612673

  length of vectors
    11.665989097 11.665989097 11.665989097     0.104984229  0.104984229  0.104984229


 
 k-points in units of 2pi/SCALE and weight: SiO test                                
   0.00000000  0.00000000  0.00000000       0.125
  -0.12500000  0.12500000  0.12500000       0.250
   0.12500000 -0.12500000  0.12500000       0.250
   0.00000000  0.00000000  0.25000000       0.250
   0.25000000  0.00000000  0.00000000       0.125
 
 k-points in reciprocal lattice and weights: SiO test                                
   0.00000000  0.00000000  0.00000000       0.125
   0.50000000  0.00000000  0.00000000       0.250
   0.00000000  0.50000000  0.00000000       0.250
   0.50000000  0.50000000  0.00000000       0.250
   0.00000000  0.50000000  0.50000000       0.125
 
 position of ions in fractional coordinates (direct lattice) 
   0.00342877  0.00000000  0.00000000
   0.25000000  0.00000000  0.00000000
   0.50000000  0.00000000  0.00000000
   0.75000000  0.00000000  0.00000000
   0.00000000  0.25000000  0.00000000
   0.25000000  0.25000000  0.00000000
   0.50000000  0.25000000  0.00000000
   0.75000000  0.25000000  0.00000000
   0.00000000  0.50000000  0.00000000
   0.25000000  0.50000000  0.00000000
   0.50000000  0.50000000  0.00000000
   0.75000000  0.50000000  0.00000000
   0.00000000  0.75000000  0.00000000
   0.25000000  0.75000000  0.00000000
   0.50000000  0.75000000  0.00000000
   0.75000000  0.75000000  0.00000000
   0.00000000  0.00000000  0.25000000
   0.25000000  0.00000000  0.25000000
   0.50000000  0.00000000  0.25000000
   0.75000000  0.00000000  0.25000000
   0.00000000  0.25000000  0.25000000
   0.25000000  0.25000000  0.25000000
   0.50000000  0.25000000  0.25000000
   0.75000000  0.25000000  0.25000000
   0.00000000  0.50000000  0.25000000
   0.25000000  0.50000000  0.25000000
   0.50000000  0.50000000  0.25000000
   0.75000000  0.50000000  0.25000000
   0.00000000  0.75000000  0.25000000
   0.25000000  0.75000000  0.25000000
   0.50000000  0.75000000  0.25000000
   0.75000000  0.75000000  0.25000000
   0.00000000  0.00000000  0.50000000
   0.25000000  0.00000000  0.50000000
   0.50000000  0.00000000  0.50000000
   0.75000000  0.00000000  0.50000000
   0.00000000  0.25000000  0.50000000
   0.25000000  0.25000000  0.50000000
   0.50000000  0.25000000  0.50000000
   0.75000000  0.25000000  0.50000000
   0.00000000  0.50000000  0.50000000
   0.25000000  0.50000000  0.50000000
   0.50000000  0.50000000  0.50000000
   0.75000000  0.50000000  0.50000000
   0.00000000  0.75000000  0.50000000
   0.25000000  0.75000000  0.50000000
   0.50000000  0.75000000  0.50000000
   0.75000000  0.75000000  0.50000000
   0.00000000  0.00000000  0.75000000
   0.25000000  0.00000000  0.75000000
   0.50000000  0.00000000  0.75000000
   0.75000000  0.00000000  0.75000000
   0.00000000  0.25000000  0.75000000
   0.25000000  0.25000000  0.75000000
   0.50000000  0.25000000  0.75000000
   0.75000000  0.25000000  0.75000000
   0.00000000  0.50000000  0.75000000
   0.25000000  0.50000000  0.75000000
   0.50000000  0.50000000  0.75000000
   0.75000000  0.50000000  0.75000000
   0.00000000  0.75000000  0.75000000
   0.25000000  0.75000000  0.75000000
   0.50000000  0.75000000  0.75000000
   0.75000000  0.75000000  0.75000000
   0.12500000  0.12500000  0.12500000
   0.37500000  0.12500000  0.12500000
   0.62500000  0.12500000  0.12500000
   0.87500000  0.12500000  0.12500000
   0.12500000  0.37500000  0.12500000
   0.37500000  0.37500000  0.12500000
   0.62500000  0.37500000  0.12500000
   0.87500000  0.37500000  0.12500000
   0.12500000  0.62500000  0.12500000
   0.37500000  0.62500000  0.12500000
   0.62500000  0.62500000  0.12500000
   0.87500000  0.62500000  0.12500000
   0.12500000  0.87500000  0.12500000
   0.37500000  0.87500000  0.12500000
   0.62500000  0.87500000  0.12500000
   0.87500000  0.87500000  0.12500000
   0.12500000  0.12500000  0.37500000
   0.37500000  0.12500000  0.37500000
   0.62500000  0.12500000  0.37500000
   0.87500000  0.12500000  0.37500000
   0.12500000  0.37500000  0.37500000
   0.37500000  0.37500000  0.37500000
   0.62500000  0.37500000  0.37500000
   0.87500000  0.37500000  0.37500000
   0.12500000  0.62500000  0.37500000
   0.37500000  0.62500000  0.37500000
   0.62500000  0.62500000  0.37500000
   0.87500000  0.62500000  0.37500000
   0.12500000  0.87500000  0.37500000
   0.37500000  0.87500000  0.37500000
   0.62500000  0.87500000  0.37500000
   0.87500000  0.87500000  0.37500000
   0.12500000  0.12500000  0.62500000
   0.37500000  0.12500000  0.62500000
   0.62500000  0.12500000  0.62500000
   0.87500000  0.12500000  0.62500000
   0.12500000  0.37500000  0.62500000
   0.37500000  0.37500000  0.62500000
   0.62500000  0.37500000  0.62500000
   0.87500000  0.37500000  0.62500000
   0.12500000  0.62500000  0.62500000
   0.37500000  0.62500000  0.62500000
   0.62500000  0.62500000  0.62500000
   0.87500000  0.62500000  0.62500000
   0.12500000  0.87500000  0.62500000
   0.37500000  0.87500000  0.62500000
   0.62500000  0.87500000  0.62500000
   0.87500000  0.87500000  0.62500000
   0.12500000  0.12500000  0.87500000
   0.37500000  0.12500000  0.87500000
   0.62500000  0.12500000  0.87500000
   0.87500000  0.12500000  0.87500000
   0.12500000  0.37500000  0.87500000
   0.37500000  0.37500000  0.87500000
   0.62500000  0.37500000  0.87500000
   0.87500000  0.37500000  0.87500000
   0.12500000  0.62500000  0.87500000
   0.37500000  0.62500000  0.87500000
   0.62500000  0.62500000  0.87500000
   0.87500000  0.62500000  0.87500000
   0.12500000  0.87500000  0.87500000
   0.37500000  0.87500000  0.87500000
   0.62500000  0.87500000  0.87500000
   0.87500000  0.87500000  0.87500000
 
 position of ions in cartesian coordinates  (Angst):
   0.00000000  0.02828427  0.02828427
   0.00000000  2.06227500  2.06227500
   0.00000000  4.12455000  4.12455000
   0.00000000  6.18682500  6.18682500
   2.06227500  0.00000000  2.06227500
   2.06227500  2.06227500  4.12455000
   2.06227500  4.12455000  6.18682500
   2.06227500  6.18682500  8.24910000
   4.12455000  0.00000000  4.12455000
   4.12455000  2.06227500  6.18682500
   4.12455000  4.12455000  8.24910000
   4.12455000  6.18682500 10.31137500
   6.18682500  0.00000000  6.18682500
   6.18682500  2.06227500  8.24910000
   6.18682500  4.12455000 10.31137500
   6.18682500  6.18682500 12.37365000
   2.06227500  2.06227500  0.00000000
   2.06227500  4.12455000  2.06227500
   2.06227500  6.18682500  4.12455000
   2.06227500  8.24910000  6.18682500
   4.12455000  2.06227500  2.06227500
   4.12455000  4.12455000  4.12455000
   4.12455000  6.18682500  6.18682500
   4.12455000  8.24910000  8.24910000
   6.18682500  2.06227500  4.12455000
   6.18682500  4.12455000  6.18682500
   6.18682500  6.18682500  8.24910000
   6.18682500  8.24910000 10.31137500
   8.24910000  2.06227500  6.18682500
   8.24910000  4.12455000  8.24910000
   8.24910000  6.18682500 10.31137500
   8.24910000  8.24910000 12.37365000
   4.12455000  4.12455000  0.00000000
   4.12455000  6.18682500  2.06227500
   4.12455000  8.24910000  4.12455000
   4.12455000 10.31137500  6.18682500
   6.18682500  4.12455000  2.06227500
   6.18682500  6.18682500  4.12455000
   6.18682500  8.24910000  6.18682500
   6.18682500 10.31137500  8.24910000
   8.24910000  4.12455000  4.12455000
   8.24910000  6.18682500  6.18682500
   8.24910000  8.24910000  8.24910000
   8.24910000 10.31137500 10.31137500
  10.31137500  4.12455000  6.18682500
  10.31137500  6.18682500  8.24910000
  10.31137500  8.24910000 10.31137500
  10.31137500 10.31137500 12.37365000
   6.18682500  6.18682500  0.00000000
   6.18682500  8.24910000  2.06227500
   6.18682500 10.31137500  4.12455000
   6.18682500 12.37365000  6.18682500
   8.24910000  6.18682500  2.06227500
   8.24910000  8.24910000  4.12455000
   8.24910000 10.31137500  6.18682500
   8.24910000 12.37365000  8.24910000
  10.31137500  6.18682500  4.12455000
  10.31137500  8.24910000  6.18682500
  10.31137500 10.31137500  8.24910000
  10.31137500 12.37365000 10.31137500
  12.37365000  6.18682500  6.18682500
  12.37365000  8.24910000  8.24910000
  12.37365000 10.31137500 10.31137500
  12.37365000 12.37365000 12.37365000
   2.06227500  2.06227500  2.06227500
   2.06227500  4.12455000  4.12455000
   2.06227500  6.18682500  6.18682500
   2.06227500  8.24910000  8.24910000
   4.12455000  2.06227500  4.12455000
   4.12455000  4.12455000  6.18682500
   4.12455000  6.18682500  8.24910000
   4.12455000  8.24910000 10.31137500
   6.18682500  2.06227500  6.18682500
   6.18682500  4.12455000  8.24910000
   6.18682500  6.18682500 10.31137500
   6.18682500  8.24910000 12.37365000
   8.24910000  2.06227500  8.24910000
   8.24910000  4.12455000 10.31137500
   8.24910000  6.18682500 12.37365000
   8.24910000  8.24910000 14.43592500
   4.12455000  4.12455000  2.06227500
   4.12455000  6.18682500  4.12455000
   4.12455000  8.24910000  6.18682500
   4.12455000 10.31137500  8.24910000
   6.18682500  4.12455000  4.12455000
   6.18682500  6.18682500  6.18682500
   6.18682500  8.24910000  8.24910000
   6.18682500 10.31137500 10.31137500
   8.24910000  4.12455000  6.18682500
   8.24910000  6.18682500  8.24910000
   8.24910000  8.24910000 10.31137500
   8.24910000 10.31137500 12.37365000
  10.31137500  4.12455000  8.24910000
  10.31137500  6.18682500 10.31137500
  10.31137500  8.24910000 12.37365000
  10.31137500 10.31137500 14.43592500
   6.18682500  6.18682500  2.06227500
   6.18682500  8.24910000  4.12455000
   6.18682500 10.31137500  6.18682500
   6.18682500 12.37365000  8.24910000
   8.24910000  6.18682500  4.12455000
   8.24910000  8.24910000  6.18682500
   8.24910000 10.31137500  8.24910000
   8.24910000 12.37365000 10.31137500
  10.31137500  6.18682500  6.18682500
  10.31137500  8.24910000  8.24910000
  10.31137500 10.31137500 10.31137500
  10.31137500 12.37365000 12.37365000
  12.37365000  6.18682500  8.24910000
  12.37365000  8.24910000 10.31137500
  12.37365000 10.31137500 12.37365000
  12.37365000 12.37365000 14.43592500
   8.24910000  8.24910000  2.06227500
   8.24910000 10.31137500  4.12455000
   8.24910000 12.37365000  6.18682500
   8.24910000 14.43592500  8.24910000
  10.31137500  8.24910000  4.12455000
  10.31137500 10.31137500  6.18682500
  10.31137500 12.37365000  8.24910000
  10.31137500 14.43592500 10.31137500
  12.37365000  8.24910000  6.18682500
  12.37365000 10.31137500  8.24910000
  12.37365000 12.37365000 10.31137500
  12.37365000 14.43592500 12.37365000
  14.43592500  8.24910000  8.24910000
  14.43592500 10.31137500 10.31137500
  14.43592500 12.37365000 12.37365000
  14.43592500 14.43592500 14.43592500
 


--------------------------------------------------------------------------------------------------------


 k-point  1 :   0.0000 0.0000 0.0000  plane waves:   37461
 k-point  2 :   0.5000 0.0000 0.0000  plane waves:   37514
 k-point  3 :   0.0000 0.5000 0.0000  plane waves:   37514
 k-point  4 :   0.5000 0.5000 0.0000  plane waves:   37440
 k-point  5 :   0.0000 0.5000 0.5000  plane waves:   37440

 maximum and minimum number of plane-waves per node :     37514    37440

 maximum number of plane-waves:     37514
 maximum index in each direction: 
   IXMAX=   23   IYMAX=   23   IZMAX=   23
   IXMIN=  -23   IYMIN=  -23   IZMIN=  -23

 NGX is ok and might be reduce to  94
 NGY is ok and might be reduce to  94
 NGZ is ok and might be reduce to  94

 serial   3D FFT for wavefunctions
 parallel 3D FFT for charge:
    minimum data exchange during FFTs selected (reduces bandwidth)


 total amount of memory used by VASP on root node   413965. kBytes
========================================================================

   base      :      30000. kBytes
   nonl-proj :     130869. kBytes
   fftplans  :      68359. kBytes
   grid      :      60493. kBytes
   one-center:       1990. kBytes
   wavefun   :     122254. kBytes
 
     INWAV:  cpu time    0.00: real time    0.00
 Broyden mixing: mesh for mixing (old mesh)
   NGX = 47   NGY = 47   NGZ = 47
  (NGX  =192   NGY  =192   NGZ  =192)
  gives a total of 103823 points

 initial charge density was supplied:
 charge density of overlapping atoms calculated
 number of electron    1024.0000000 magnetization 
 keeping initial charge density in first step


--------------------------------------------------------------------------------------------------------


 Maximum index for augmentation-charges        10969 (set IRDMAX)


--------------------------------------------------------------------------------------------------------


 First call to EWALD:  gamma=   0.171
 Maximum number of real-space cells 3x 3x 3
 Maximum number of reciprocal cells 3x 3x 3

 FEWALD executed in parallel
    FEWALD:  cpu time    0.01: real time    0.01


----------------------------------------- Iteration    1(   1)  ---------------------------------------


    POTLOK:  cpu time    0.32: real time    0.33
    SETDIJ:  cpu time    0.36: real time    0.36
     EDDAV:  cpu time  103.63: real time  107.33
       DOS:  cpu time    0.00: real time    0.00
    --------------------------------------------
      LOOP:  cpu time  104.31: real time  108.02

 eigenvalue-minimisations  :  6320
 total energy-change (2. order) : 0.1805968E+05  (-0.5591163E+05)
 number of electron    1024.0000000 magnetization 
 augmentation part     1024.0000000 magnetization 

 Free energy of the ion-electron system (eV)
  ---------------------------------------------------
  alpha Z        PSCENC =      8564.25731157
  Ewald energy   TEWEN  =    -88175.42917541
  -Hartree energ DENC   =    -18637.77721060
  -exchange      EXHF   =         0.00000000
  -V(xc)+E(xc)   XCENC  =      3130.86508708
  PAW double counting   =     68771.33855694   -67313.15865203
  entropy T*S    EENTRO =        -0.00172486
  eigenvalues    EBANDS =     10223.64845084
  atomic energy  EATOM  =    101495.93743338
  ---------------------------------------------------
  free energy    TOTEN  =     18059.68007691 eV

  energy without entropy =    18059.68180177  energy(sigma->0) =    18059.68093934


--------------------------------------------------------------------------------------------------------




----------------------------------------- Iteration    1(   2)  ---------------------------------------


     EDDAV:  cpu time  102.87: real time  106.53
       DOS:  cpu time    0.00: real time    0.00
    --------------------------------------------
      LOOP:  cpu time  102.87: real time  106.54

 eigenvalue-minimisations  :  6240
 total energy-change (2. order) :-0.1658360E+05  (-0.1617142E+05)
 number of electron    1024.0000000 magnetization 
 augmentation part     1024.0000000 magnetization 

 Free energy of the ion-electron system (eV)
  ---------------------------------------------------
  alpha Z        PSCENC =      8564.25731157
  Ewald energy   TEWEN  =    -88175.42917541
  -Hartree energ DENC   =    -18637.77721060
  -exchange      EXHF   =         0.00000000
  -V(xc)+E(xc)   XCENC  =      3130.86508708
  PAW double counting   =     68771.33855694   -67313.15865203
  entropy T*S    EENTRO =        -0.00587457
  eigenvalues    EBANDS =     -6359.94814086
  atomic energy  EATOM  =    101495.93743338
  ---------------------------------------------------
  free energy    TOTEN  =      1476.07933550 eV

  energy without entropy =     1476.08521006  energy(sigma->0) =     1476.08227278


--------------------------------------------------------------------------------------------------------




----------------------------------------- Iteration    1(   3)  ---------------------------------------


     EDDAV:  cpu time  127.30: real time  131.69
       DOS:  cpu time    0.00: real time    0.00
    --------------------------------------------
      LOOP:  cpu time  127.31: real time  131.69

 eigenvalue-minimisations  :  8208
 total energy-change (2. order) :-0.2811155E+04  (-0.2715415E+04)
 number of electron    1024.0000000 magnetization 
 augmentation part     1024.0000000 magnetization 

 Free energy of the ion-electron system (eV)
  ---------------------------------------------------
  alpha Z        PSCENC =      8564.25731157
  Ewald energy   TEWEN  =    -88175.42917541
  -Hartree energ DENC   =    -18637.77721060
  -exchange      EXHF   =         0.00000000
  -V(xc)+E(xc)   XCENC  =      3130.86508708
  PAW double counting   =     68771.33855694   -67313.15865203
  entropy T*S    EENTRO =        -0.00531628
  eigenvalues    EBANDS =     -9171.10352081
  atomic energy  EATOM  =    101495.93743338
  ---------------------------------------------------
  free energy    TOTEN  =     -1335.07548616 eV

  energy without entropy =    -1335.07016988  energy(sigma->0) =    -1335.07282802


--------------------------------------------------------------------------------------------------------




----------------------------------------- Iteration    1(   4)  ---------------------------------------


     EDDAV:  cpu time  137.20: real time  141.89
       DOS:  cpu time    0.00: real time    0.00
    --------------------------------------------
      LOOP:  cpu time  137.21: real time  141.89

 eigenvalue-minimisations  :  9008
 total energy-change (2. order) :-0.2354674E+03  (-0.2248684E+03)
 number of electron    1024.0000000 magnetization 
 augmentation part     1024.0000000 magnetization 

 Free energy of the ion-electron system (eV)
  ---------------------------------------------------
  alpha Z        PSCENC =      8564.25731157
  Ewald energy   TEWEN  =    -88175.42917541
  -Hartree energ DENC   =    -18637.77721060
  -exchange      EXHF   =         0.00000000
  -V(xc)+E(xc)   XCENC  =      3130.86508708
  PAW double counting   =     68771.33855694   -67313.15865203
  entropy T*S    EENTRO =        -0.00457557
  eigenvalues    EBANDS =     -9406.57167573
  atomic energy  EATOM  =    101495.93743338
  ---------------------------------------------------
  free energy    TOTEN  =     -1570.54290037 eV

  energy without entropy =    -1570.53832480  energy(sigma->0) =    -1570.54061259


--------------------------------------------------------------------------------------------------------




----------------------------------------- Iteration    1(   5)  ---------------------------------------


     EDDAV:  cpu time  140.77: real time  145.56
       DOS:  cpu time    0.00: real time    0.00
    CHARGE:  cpu time    3.65: real time    3.65
    MIXING:  cpu time    0.01: real time    0.02
    --------------------------------------------
      LOOP:  cpu time  144.44: real time  149.23

 eigenvalue-minimisations  :  9296
 total energy-change (2. order) :-0.1039972E+02  (-0.9820943E+01)
 number of electron    1024.0000002 magnetization 
 augmentation part      277.5293465 magnetization 

 Broyden mixing:
  rms(total) = 0.11527E+02    rms(broyden)= 0.11526E+02
  rms(prec ) = 0.16288E+02
  weight for this iteration     100.00

 Free energy of the ion-electron system (eV)
  ---------------------------------------------------
  alpha Z        PSCENC =      8564.25731157
  Ewald energy   TEWEN  =    -88175.42917541
  -Hartree energ DENC   =    -18637.77721060
  -exchange      EXHF   =         0.00000000
  -V(xc)+E(xc)   XCENC  =      3130.86508708
  PAW double counting   =     68771.33855694   -67313.15865203
  entropy T*S    EENTRO =        -0.00321255
  eigenvalues    EBANDS =     -9416.97275972
  atomic energy  EATOM  =    101495.93743338
  ---------------------------------------------------
  free energy    TOTEN  =     -1580.94262134 eV

  energy without entropy =    -1580.93940880  energy(sigma->0) =    -1580.94101507


--------------------------------------------------------------------------------------------------------




----------------------------------------- Iteration    1(   6)  ---------------------------------------


    POTLOK:  cpu time    0.30: real time    0.30
    SETDIJ:  cpu time    0.35: real time    0.35
     EDDAV:  cpu time  127.45: real time  131.85
       DOS:  cpu time    0.00: real time    0.00
    CHARGE:  cpu time    3.60: real time    3.60
    MIXING:  cpu time    0.02: real time    0.02
    --------------------------------------------
      LOOP:  cpu time  131.72: real time  136.13

 eigenvalue-minimisations  :  8208
 total energy-change (2. order) : 0.2800378E+03  (-0.3514833E+03)
 number of electron    1024.0000007 magnetization 
 augmentation part      336.6931921 magnetization 

 Broyden mixing:
  rms(total) = 0.72028E+01    rms(broyden)= 0.72009E+01
  rms(prec ) = 0.95753E+01
  weight for this iteration     100.00

 eigenvalues of (default mixing * dielectric matrix)
  average eigenvalue GAMMA=   0.6156
  0.6156

 Free energy of the ion-electron system (eV)
  ---------------------------------------------------
  alpha Z        PSCENC =      8564.25731157
  Ewald energy   TEWEN  =    -88175.42917541
  -Hartree energ DENC   =    -16897.80823691
  -exchange      EXHF   =         0.00000000
  -V(xc)+E(xc)   XCENC  =      3100.83359165
  PAW double counting   =     66826.29454274   -65592.07418439
  entropy T*S    EENTRO =        -0.00444283
  eigenvalues    EBANDS =    -10622.91162277
  atomic energy  EATOM  =    101495.93743338
  ---------------------------------------------------
  free energy    TOTEN  =     -1300.90478297 eV

  energy without entropy =    -1300.90034014  energy(sigma->0) =    -1300.90256155


--------------------------------------------------------------------------------------------------------




----------------------------------------- Iteration    1(   7)  ---------------------------------------


    POTLOK:  cpu time    0.30: real time    0.30
    SETDIJ:  cpu time    0.35: real time    0.35
     EDDAV:  cpu time  131.26: real time  135.78
       DOS:  cpu time    0.00: real time    0.00
    CHARGE:  cpu time    3.63: real time    3.63
    MIXING:  cpu time    0.02: real time    0.02
    --------------------------------------------
      LOOP:  cpu time  135.56: real time  140.08

 eigenvalue-minimisations  :  8512
 total energy-change (2. order) : 0.5967009E+02  (-0.6016171E+02)
 number of electron    1024.0000005 magnetization 
 augmentation part      308.0886087 magnetization 

 Broyden mixing:
  rms(total) = 0.16243E+01    rms(broyden)= 0.16240E+01
  rms(prec ) = 0.22432E+01
  weight for this iteration     100.00

 eigenvalues of (default mixing * dielectric matrix)
  average eigenvalue GAMMA=   0.5305
  0.6348  0.4263

 Free energy of the ion-electron system (eV)
  ---------------------------------------------------
  alpha Z        PSCENC =      8564.25731157
  Ewald energy   TEWEN  =    -88175.42917541
  -Hartree energ DENC   =    -17428.49844234
  -exchange      EXHF   =         0.00000000
  -V(xc)+E(xc)   XCENC  =      3109.42479556
  PAW double counting   =     69449.65307577   -68165.93747823
  entropy T*S    EENTRO =        -0.01919104
  eigenvalues    EBANDS =    -10090.62302282
  atomic energy  EATOM  =    101495.93743338
  ---------------------------------------------------
  free energy    TOTEN  =     -1241.23469356 eV

  energy without entropy =    -1241.21550253  energy(sigma->0) =    -1241.22509805


--------------------------------------------------------------------------------------------------------




----------------------------------------- Iteration    1(   8)  ---------------------------------------


    POTLOK:  cpu time    0.30: real time    0.30
    SETDIJ:  cpu time    0.35: real time    0.35
     EDDAV:  cpu time  127.30: real time  131.69
       DOS:  cpu time    0.00: real time    0.00
    CHARGE:  cpu time    3.63: real time    3.64
    MIXING:  cpu time    0.02: real time    0.02
    --------------------------------------------
      LOOP:  cpu time  131.60: real time  135.99

 eigenvalue-minimisations  :  8192
 total energy-change (2. order) :-0.4793950E+00  (-0.2455625E+01)
 number of electron    1024.0000005 magnetization 
 augmentation part      309.0162068 magnetization 

 Broyden mixing:
  rms(total) = 0.13646E+01    rms(broyden)= 0.13645E+01
  rms(prec ) = 0.20009E+01
  weight for this iteration     100.00

 eigenvalues of (default mixing * dielectric matrix)
  average eigenvalue GAMMA=   0.7130
  1.3377  0.5926  0.2088

 Free energy of the ion-electron system (eV)
  ---------------------------------------------------
  alpha Z        PSCENC =      8564.25731157
  Ewald energy   TEWEN  =    -88175.42917541
  -Hartree energ DENC   =    -17353.32747354
  -exchange      EXHF   =         0.00000000
  -V(xc)+E(xc)   XCENC  =      3106.40708860
  PAW double counting   =     69685.31007247   -68412.84541823
  entropy T*S    EENTRO =        -0.02142460
  eigenvalues    EBANDS =    -10152.00250283
  atomic energy  EATOM  =    101495.93743338
  ---------------------------------------------------
  free energy    TOTEN  =     -1241.71408859 eV

  energy without entropy =    -1241.69266399  energy(sigma->0) =    -1241.70337629


--------------------------------------------------------------------------------------------------------




----------------------------------------- Iteration    1(   9)  ---------------------------------------


    POTLOK:  cpu time    0.30: real time    0.30
    SETDIJ:  cpu time    0.35: real time    0.35
     EDDAV:  cpu time  134.82: real time  139.44
       DOS:  cpu time    0.00: real time    0.00
    CHARGE:  cpu time    3.62: real time    3.62
    MIXING:  cpu time    0.02: real time    0.02
    --------------------------------------------
      LOOP:  cpu time  139.10: real time  143.73

 eigenvalue-minimisations  :  8800
 total energy-change (2. order) : 0.2248471E+01  (-0.1693704E+01)
 number of electron    1024.0000006 magnetization 
 augmentation part      313.1353572 magnetization 

 Broyden mixing:
  rms(total) = 0.12663E+01    rms(broyden)= 0.12662E+01
  rms(prec ) = 0.21289E+01
  weight for this iteration     100.00

 eigenvalues of (default mixing * dielectric matrix)
  average eigenvalue GAMMA=   0.9596
  2.4936  0.6845  0.5216  0.1386

 Free energy of the ion-electron system (eV)
  ---------------------------------------------------
  alpha Z        PSCENC =      8564.25731157
  Ewald energy   TEWEN  =    -88175.42917541
  -Hartree energ DENC   =    -17147.09288344
  -exchange      EXHF   =         0.00000000
  -V(xc)+E(xc)   XCENC  =      3098.99176308
  PAW double counting   =     70474.75389706   -69235.16464434
  entropy T*S    EENTRO =        -0.01561135
  eigenvalues    EBANDS =    -10315.70370849
  atomic energy  EATOM  =    101495.93743338
  ---------------------------------------------------
  free energy    TOTEN  =     -1239.46561795 eV

  energy without entropy =    -1239.45000659  energy(sigma->0) =    -1239.45781227


--------------------------------------------------------------------------------------------------------




----------------------------------------- Iteration    1(  10)  ---------------------------------------


    POTLOK:  cpu time    0.30: real time    0.30
    SETDIJ:  cpu time    0.35: real time    0.35
     EDDAV:  cpu time  137.41: real time  142.11
       DOS:  cpu time    0.00: real time    0.00
    CHARGE:  cpu time    3.61: real time    3.62
    MIXING:  cpu time    0.02: real time    0.02
    --------------------------------------------
      LOOP:  cpu time  141.69: real time  146.40

 eigenvalue-minimisations  :  9008
 total energy-change (2. order) :-0.3029546E+01  (-0.2125104E+01)
 number of electron    1024.0000006 magnetization 
 augmentation part      316.9906739 magnetization 

 Broyden mixing:
  rms(total) = 0.22963E+01    rms(broyden)= 0.22962E+01
  rms(prec ) = 0.35755E+01
  weight for this iteration     100.00

 eigenvalues of (default mixing * dielectric matrix)
  average eigenvalue GAMMA=   0.8275
  2.6203  0.7184  0.5177  0.1514  0.1295

 Free energy of the ion-electron system (eV)
  ---------------------------------------------------
  alpha Z        PSCENC =      8564.25731157
  Ewald energy   TEWEN  =    -88175.42917541
  -Hartree energ DENC   =    -17003.35912805
  -exchange      EXHF   =         0.00000000
  -V(xc)+E(xc)   XCENC  =      3094.96354952
  PAW double counting   =     71730.77716282   -70521.60885675
  entropy T*S    EENTRO =        -0.01333347
  eigenvalues    EBANDS =    -10428.02012785
  atomic energy  EATOM  =    101495.93743338
  ---------------------------------------------------
  free energy    TOTEN  =     -1242.49516424 eV

  energy without entropy =    -1242.48183077  energy(sigma->0) =    -1242.48849750


--------------------------------------------------------------------------------------------------------




----------------------------------------- Iteration    1(  11)  ---------------------------------------


    POTLOK:  cpu time    0.30: real time    0.30
    SETDIJ:  cpu time    0.35: real time    0.35
     EDDAV:  cpu time  137.82: real time  142.53
       DOS:  cpu time    0.00: real time    0.00
    CHARGE:  cpu time    3.62: real time    3.62
    MIXING:  cpu time    0.02: real time    0.02
    --------------------------------------------
      LOOP:  cpu time  142.11: real time  146.83

 eigenvalue-minimisations  :  9024
 total energy-change (2. order) : 0.2343406E+01  (-0.9206381E+00)
 number of electron    1024.0000006 magnetization 
 augmentation part      316.6950931 magnetization 

 Broyden mixing:
  rms(total) = 0.11486E+01    rms(broyden)= 0.11484E+01
  rms(prec ) = 0.17032E+01
  weight for this iteration     100.00

 eigenvalues of (default mixing * dielectric matrix)
  average eigenvalue GAMMA=   0.7186
  2.6185  0.7333  0.4930  0.2090  0.1289  0.1289

 Free energy of the ion-electron system (eV)
  ---------------------------------------------------
  alpha Z        PSCENC =      8564.25731157
  Ewald energy   TEWEN  =    -88175.42917541
  -Hartree energ DENC   =    -17007.26535161
  -exchange      EXHF   =         0.00000000
  -V(xc)+E(xc)   XCENC  =      3095.17657615
  PAW double counting   =     71963.94138797   -70756.30644398
  entropy T*S    EENTRO =        -0.02406568
  eigenvalues    EBANDS =    -10420.43943085
  atomic energy  EATOM  =    101495.93743338
  ---------------------------------------------------
  free energy    TOTEN  =     -1240.15175847 eV

  energy without entropy =    -1240.12769278  energy(sigma->0) =    -1240.13972563


--------------------------------------------------------------------------------------------------------




----------------------------------------- Iteration    1(  12)  ---------------------------------------


    POTLOK:  cpu time    0.30: real time    0.30
    SETDIJ:  cpu time    0.35: real time    0.35
     EDDAV:  cpu time  137.01: real time  141.69
       DOS:  cpu time    0.00: real time    0.00
    CHARGE:  cpu time    3.62: real time    3.62
    MIXING:  cpu time    0.02: real time    0.02
    --------------------------------------------
      LOOP:  cpu time  141.29: real time  145.99

 eigenvalue-minimisations  :  8960
 total energy-change (2. order) : 0.6038955E+00  (-0.1323544E+00)
 number of electron    1024.0000006 magnetization 
 augmentation part      316.0181277 magnetization 

 Broyden mixing:
  rms(total) = 0.86967E+00    rms(broyden)= 0.86964E+00
  rms(prec ) = 0.12421E+01
  weight for this iteration     100.00

 eigenvalues of (default mixing * dielectric matrix)
  average eigenvalue GAMMA=   0.6907
  2.5893  0.8008  0.5325  0.5325  0.1357  0.1357  0.1085

 Free energy of the ion-electron system (eV)
  ---------------------------------------------------
  alpha Z        PSCENC =      8564.25731157
  Ewald energy   TEWEN  =    -88175.42917541
  -Hartree energ DENC   =    -17021.83105757
  -exchange      EXHF   =         0.00000000
  -V(xc)+E(xc)   XCENC  =      3095.54047234
  PAW double counting   =     72000.86511641   -70791.41080426
  entropy T*S    EENTRO =        -0.02767090
  eigenvalues    EBANDS =    -10407.44948856
  atomic energy  EATOM  =    101495.93743338
  ---------------------------------------------------
  free energy    TOTEN  =     -1239.54786301 eV

  energy without entropy =    -1239.52019211  energy(sigma->0) =    -1239.53402756


--------------------------------------------------------------------------------------------------------




----------------------------------------- Iteration    1(  13)  ---------------------------------------


    POTLOK:  cpu time    0.30: real time    0.30
    SETDIJ:  cpu time    0.35: real time    0.35
     EDDAV:  cpu time  138.59: real time  143.32
       DOS:  cpu time    0.00: real time    0.00
    CHARGE:  cpu time    3.62: real time    3.62
    MIXING:  cpu time    0.02: real time    0.02
    --------------------------------------------
      LOOP:  cpu time  142.88: real time  147.62

 eigenvalue-minimisations  :  9088
 total energy-change (2. order) : 0.7285903E+00  (-0.2192951E+00)
 number of electron    1024.0000006 magnetization 
 augmentation part      314.6065968 magnetization 

 Broyden mixing:
  rms(total) = 0.56136E+00    rms(broyden)= 0.56130E+00
  rms(prec ) = 0.84604E+00
  weight for this iteration     100.00

 eigenvalues of (default mixing * dielectric matrix)
  average eigenvalue GAMMA=   0.6632
  2.5582  1.0064  0.6194  0.6194  0.1445  0.1336  0.1336  0.0903

 Free energy of the ion-electron system (eV)
  ---------------------------------------------------
  alpha Z        PSCENC =      8564.25731157
  Ewald energy   TEWEN  =    -88175.42917541
  -Hartree energ DENC   =    -17057.74044836
  -exchange      EXHF   =         0.00000000
  -V(xc)+E(xc)   XCENC  =      3096.43224745
  PAW double counting   =     72064.48015672   -70850.41662876
  entropy T*S    EENTRO =        -0.01976518
  eigenvalues    EBANDS =    -10376.32040411
  atomic energy  EATOM  =    101495.93743338
  ---------------------------------------------------
  free energy    TOTEN  =     -1238.81927269 eV

  energy without entropy =    -1238.79950751  energy(sigma->0) =    -1238.80939010


--------------------------------------------------------------------------------------------------------




----------------------------------------- Iteration    1(  14)  ---------------------------------------


    POTLOK:  cpu time    0.30: real time    0.30
    SETDIJ:  cpu time    0.35: real time    0.35
     EDDAV:  cpu time  138.34: real time  143.08
       DOS:  cpu time    0.00: real time    0.00
    CHARGE:  cpu time    3.62: real time    3.62
    MIXING:  cpu time    0.02: real time    0.02
    --------------------------------------------
      LOOP:  cpu time  142.63: real time  147.38

 eigenvalue-minimisations  :  9072
 total energy-change (2. order) : 0.3221012E+00  (-0.2878462E+00)
 number of electron    1024.0000006 magnetization 
 augmentation part      312.9385629 magnetization 

 Broyden mixing:
  rms(total) = 0.15637E+00    rms(broyden)= 0.15624E+00
  rms(prec ) = 0.23322E+00
  weight for this iteration     100.00

 eigenvalues of (default mixing * dielectric matrix)
  average eigenvalue GAMMA=   0.6220
  2.5651  0.9750  0.6495  0.6495  0.2636  0.1391  0.1330  0.1330  0.0905

 Free energy of the ion-electron system (eV)
  ---------------------------------------------------
  alpha Z        PSCENC =      8564.25731157
  Ewald energy   TEWEN  =    -88175.42917541
  -Hartree energ DENC   =    -17104.96981996
  -exchange      EXHF   =         0.00000000
  -V(xc)+E(xc)   XCENC  =      3097.67568541
  PAW double counting   =     72146.15035337   -70926.09593010
  entropy T*S    EENTRO =        -0.01988383
  eigenvalues    EBANDS =    -10336.00314591
  atomic energy  EATOM  =    101495.93743338
  ---------------------------------------------------
  free energy    TOTEN  =     -1238.49717149 eV

  energy without entropy =    -1238.47728766  energy(sigma->0) =    -1238.48722958


--------------------------------------------------------------------------------------------------------




----------------------------------------- Iteration    1(  15)  ---------------------------------------


    POTLOK:  cpu time    0.29: real time    0.30
    SETDIJ:  cpu time    0.35: real time    0.35
     EDDAV:  cpu time  128.40: real time  132.85
       DOS:  cpu time    0.00: real time    0.00
    CHARGE:  cpu time    3.62: real time    3.62
    MIXING:  cpu time    0.02: real time    0.02
    --------------------------------------------
      LOOP:  cpu time  132.69: real time  137.14

 eigenvalue-minimisations  :  8272
 total energy-change (2. order) : 0.8343228E-03  (-0.1129159E-01)
 number of electron    1024.0000006 magnetization 
 augmentation part      312.9213690 magnetization 

 Broyden mixing:
  rms(total) = 0.13786E+00    rms(broyden)= 0.13784E+00
  rms(prec ) = 0.20082E+00
  weight for this iteration     100.00

 eigenvalues of (default mixing * dielectric matrix)
  average eigenvalue GAMMA=   0.6529
  2.5916  1.1053  1.1053  0.5517  0.5517  0.1439  0.1363  0.1363  0.1179  0.0892

 Free energy of the ion-electron system (eV)
  ---------------------------------------------------
  alpha Z        PSCENC =      8564.25731157
  Ewald energy   TEWEN  =    -88175.42917541
  -Hartree energ DENC   =    -17108.03747258
  -exchange      EXHF   =         0.00000000
  -V(xc)+E(xc)   XCENC  =      3097.86268436
  PAW double counting   =     72151.18521987   -70930.80654923
  entropy T*S    EENTRO =        -0.01932659
  eigenvalues    EBANDS =    -10333.44646254
  atomic energy  EATOM  =    101495.93743338
  ---------------------------------------------------
  free energy    TOTEN  =     -1238.49633717 eV

  energy without entropy =    -1238.47701058  energy(sigma->0) =    -1238.48667387


--------------------------------------------------------------------------------------------------------




----------------------------------------- Iteration    1(  16)  ---------------------------------------


    POTLOK:  cpu time    0.30: real time    0.30
    SETDIJ:  cpu time    0.35: real time    0.35
     EDDAV:  cpu time  136.82: real time  141.53
       DOS:  cpu time    0.00: real time    0.00
    CHARGE:  cpu time    3.62: real time    3.63
    MIXING:  cpu time    0.01: real time    0.01
    --------------------------------------------
      LOOP:  cpu time  141.10: real time  145.82

 eigenvalue-minimisations  :  8960
 total energy-change (2. order) : 0.1707560E-01  (-0.5938512E-02)
 number of electron    1024.0000006 magnetization 
 augmentation part      312.9942668 magnetization 

 Broyden mixing:
  rms(total) = 0.10495E+00    rms(broyden)= 0.10493E+00
  rms(prec ) = 0.16288E+00
  weight for this iteration     100.00

 eigenvalues of (default mixing * dielectric matrix)
  average eigenvalue GAMMA=   0.6323
  2.5943  1.2278  1.2278  0.5563  0.5563  0.1833  0.1404  0.1344  0.1344  0.0891
  0.1111

 Free energy of the ion-electron system (eV)
  ---------------------------------------------------
  alpha Z        PSCENC =      8564.25731157
  Ewald energy   TEWEN  =    -88175.42917541
  -Hartree energ DENC   =    -17113.85573106
  -exchange      EXHF   =         0.00000000
  -V(xc)+E(xc)   XCENC  =      3098.35053438
  PAW double counting   =     72158.96535565   -70938.00264783
  entropy T*S    EENTRO =        -0.01912915
  eigenvalues    EBANDS =    -10328.68321309
  atomic energy  EATOM  =    101495.93743338
  ---------------------------------------------------
  free energy    TOTEN  =     -1238.47926157 eV

  energy without entropy =    -1238.46013242  energy(sigma->0) =    -1238.46969699


--------------------------------------------------------------------------------------------------------




----------------------------------------- Iteration    1(  17)  ---------------------------------------


    POTLOK:  cpu time    0.30: real time    0.30
    SETDIJ:  cpu time    0.35: real time    0.35
     EDDAV:  cpu time  136.81: real time  141.55
       DOS:  cpu time    0.00: real time    0.00
    CHARGE:  cpu time    3.62: real time    3.62
    MIXING:  cpu time    0.01: real time    0.01
    --------------------------------------------
      LOOP:  cpu time  141.10: real time  145.84

 eigenvalue-minimisations  :  8960
 total energy-change (2. order) : 0.6672566E-02  (-0.3305341E-02)
 number of electron    1024.0000006 magnetization 
 augmentation part      312.9852258 magnetization 

 Broyden mixing:
  rms(total) = 0.63515E-01    rms(broyden)= 0.63498E-01
  rms(prec ) = 0.92517E-01
  weight for this iteration     100.00

 eigenvalues of (default mixing * dielectric matrix)
  average eigenvalue GAMMA=   0.6584
  2.5200  1.5904  1.2226  0.6818  0.5743  0.5743  0.1471  0.1337  0.1337  0.1336
  0.0887  0.1004

 Free energy of the ion-electron system (eV)
  ---------------------------------------------------
  alpha Z        PSCENC =      8564.25731157
  Ewald energy   TEWEN  =    -88175.42917541
  -Hartree energ DENC   =    -17119.21721814
  -exchange      EXHF   =         0.00000000
  -V(xc)+E(xc)   XCENC  =      3098.68614591
  PAW double counting   =     72163.73283470   -70942.11322483
  entropy T*S    EENTRO =        -0.01916858
  eigenvalues    EBANDS =    -10324.30752760
  atomic energy  EATOM  =    101495.93743338
  ---------------------------------------------------
  free energy    TOTEN  =     -1238.47258900 eV

  energy without entropy =    -1238.45342042  energy(sigma->0) =    -1238.46300471


[...]
   -.304E+00 0.136E+00 -.373E+00   0.304E+00 -.141E+00 0.372E+00   0.414E-02 0.138E-01 0.874E-02   -.203E-04 -.256E-05 -.103E-04
   0.227E-08 -.496E+01 0.248E+01   -.369E-13 0.524E+01 -.257E+01   0.000E+00 -.163E+00 0.781E-01   -.155E-10 0.102E-04 -.226E-04
   0.680E-08 -.674E+00 -.310E+00   -.355E-13 0.686E+00 0.329E+00   0.217E-18 -.131E-01 -.257E-02   -.590E-11 0.628E-05 0.146E-04
   0.673E-08 -.323E+00 -.655E+00   -.675E-13 0.329E+00 0.671E+00   -.434E-18 0.111E-01 -.139E-01   0.307E-11 -.322E-04 0.118E-04
   0.697E-09 0.227E+01 -.483E+01   -.675E-13 -.236E+01 0.513E+01   0.000E+00 0.814E-01 -.200E+00   0.196E-10 0.661E-06 0.103E-04
   -.184E+00 -.119E+00 -.106E-01   0.190E+00 0.125E+00 0.243E-02   -.267E-02 -.143E-01 -.116E-02   -.102E-04 -.107E-04 -.833E-05
   0.178E+00 -.125E-01 -.123E+00   -.185E+00 0.336E-02 0.123E+00   0.675E-03 -.126E-02 -.875E-02   -.536E-06 0.802E-05 -.114E-04
   0.290E+00 0.142E+00 -.107E-01   -.308E+00 -.144E+00 0.257E-01   0.203E-01 0.117E-01 -.179E-02   0.377E-05 0.116E-04 0.129E-05
   -.291E+00 -.103E-01 0.142E+00   0.303E+00 0.203E-01 -.146E+00   -.202E-01 0.197E-02 0.144E-01   0.225E-04 -.119E-05 0.106E-04
   -.128E-02 0.599E-01 0.599E-01   0.143E-02 -.636E-01 -.636E-01   -.421E-03 -.109E-01 -.109E-01   -.110E-04 0.760E-05 0.760E-05
   0.157E+00 -.850E-03 -.850E-03   -.135E+00 0.158E-01 0.158E-01   -.396E-02 -.463E-03 -.463E-03   0.223E-04 0.103E-04 0.103E-04
   -.150E-02 -.312E-01 -.312E-01   -.155E-02 0.308E-01 0.308E-01   0.126E-02 -.878E-02 -.878E-02   0.173E-04 0.530E-05 0.530E-05
   -.161E+00 -.241E-02 -.241E-02   0.135E+00 0.168E-01 0.168E-01   0.131E-01 -.299E-02 -.299E-02   -.245E-05 -.228E-04 -.228E-04
   0.229E-09 -.840E-01 0.298E+00   0.444E-13 0.638E-01 -.284E+00   0.000E+00 0.276E-01 -.223E-02   0.101E-11 0.861E-05 0.222E-04
   -.329E-09 -.186E+00 -.290E-01   -.528E-13 0.190E+00 0.293E-01   0.000E+00 -.458E-01 -.859E-02   0.111E-10 0.175E-04 -.213E-04
   -.325E-09 -.346E-01 -.177E+00   -.262E-13 0.324E-01 0.188E+00   0.000E+00 -.843E-02 -.478E-01   -.912E-12 0.281E-04 -.375E-04
   -.340E-09 0.295E+00 -.833E-01   -.324E-13 -.281E+00 0.707E-01   0.867E-18 -.530E-02 0.270E-01   -.135E-10 -.417E-05 -.123E-04
   -.309E+00 -.376E+00 0.145E+00   0.308E+00 0.373E+00 -.149E+00   0.426E-02 0.634E-02 0.137E-01   -.437E-05 0.145E-04 0.423E-05
   -.397E-03 -.164E+00 -.156E+00   0.203E-02 0.152E+00 0.149E+00   -.393E-02 0.103E-01 0.116E-02   0.120E-04 0.471E-05 -.111E-04
   0.304E+00 0.136E+00 -.373E+00   -.304E+00 -.141E+00 0.372E+00   -.414E-02 0.138E-01 0.874E-02   0.203E-04 -.256E-05 -.103E-04
   0.815E-02 0.412E+00 0.398E+00   -.712E-02 -.414E+00 -.401E+00   -.275E-02 -.786E-02 -.550E-02   0.249E-06 -.448E-05 0.442E-05
   -.815E-02 0.398E+00 0.412E+00   0.712E-02 -.401E+00 -.414E+00   0.275E-02 -.550E-02 -.786E-02   -.249E-06 0.442E-05 -.448E-05
   0.309E+00 0.145E+00 -.376E+00   -.308E+00 -.149E+00 0.373E+00   -.426E-02 0.137E-01 0.634E-02   0.437E-05 0.423E-05 0.145E-04
   0.397E-03 -.156E+00 -.164E+00   -.203E-02 0.149E+00 0.152E+00   0.393E-02 0.116E-02 0.103E-01   -.120E-04 -.111E-04 0.471E-05
   -.304E+00 -.373E+00 0.136E+00   0.304E+00 0.372E+00 -.141E+00   0.414E-02 0.874E-02 0.138E-01   -.203E-04 -.103E-04 -.256E-05
   0.331E-09 0.298E+00 -.840E-01   -.426E-13 -.284E+00 0.638E-01   -.434E-18 -.223E-02 0.276E-01   0.121E-11 0.222E-04 0.861E-05
   -.323E-09 -.290E-01 -.186E+00   -.253E-13 0.293E-01 0.190E+00   0.000E+00 -.859E-02 -.458E-01   0.113E-10 -.213E-04 0.175E-04
   -.341E-09 -.177E+00 -.346E-01   0.133E-14 0.188E+00 0.324E-01   0.000E+00 -.478E-01 -.843E-02   -.682E-12 -.375E-04 0.281E-04
   -.176E-09 -.833E-01 0.295E+00   -.133E-12 0.707E-01 -.281E+00   -.867E-18 0.270E-01 -.530E-02   -.133E-10 -.123E-04 -.417E-05
   -.157E+00 -.850E-03 -.850E-03   0.135E+00 0.158E-01 0.158E-01   0.396E-02 -.463E-03 -.463E-03   -.223E-04 0.103E-04 0.103E-04
   0.150E-02 -.312E-01 -.312E-01   0.155E-02 0.308E-01 0.308E-01   -.126E-02 -.878E-02 -.878E-02   -.173E-04 0.530E-05 0.530E-05
   0.161E+00 -.241E-02 -.241E-02   -.135E+00 0.168E-01 0.168E-01   -.131E-01 -.299E-02 -.299E-02   0.245E-05 -.228E-04 -.228E-04
   0.128E-02 0.599E-01 0.599E-01   -.143E-02 -.636E-01 -.636E-01   0.421E-03 -.109E-01 -.109E-01   0.110E-04 0.760E-05 0.760E-05
   -.290E+00 -.107E-01 0.142E+00   0.308E+00 0.257E-01 -.144E+00   -.203E-01 -.179E-02 0.117E-01   -.377E-05 0.129E-05 0.116E-04
   0.291E+00 0.142E+00 -.103E-01   -.303E+00 -.146E+00 0.203E-01   0.202E-01 0.144E-01 0.197E-02   -.225E-04 0.106E-04 -.119E-05
   0.184E+00 -.106E-01 -.119E+00   -.190E+00 0.243E-02 0.125E+00   0.267E-02 -.116E-02 -.143E-01   0.102E-04 -.833E-05 -.107E-04
   -.178E+00 -.123E+00 -.125E-01   0.185E+00 0.123E+00 0.336E-02   -.675E-03 -.875E-02 -.126E-02   0.536E-06 -.114E-04 0.802E-05
   -.592E-09 0.248E+01 -.496E+01   -.133E-12 -.257E+01 0.524E+01   0.000E+00 0.781E-01 -.163E+00   -.153E-10 -.226E-04 0.102E-04
   -.211E-08 -.310E+00 -.674E+00   -.946E-13 0.329E+00 0.686E+00   -.159E-18 -.257E-02 -.131E-01   -.570E-11 0.146E-04 0.628E-05
   -.230E-08 -.655E+00 -.323E+00   -.924E-13 0.671E+00 0.329E+00   0.759E-18 -.139E-01 0.111E-01   0.327E-11 0.118E-04 -.322E-04
   -.343E-08 -.483E+01 0.227E+01   -.711E-13 0.513E+01 -.236E+01   0.000E+00 -.200E+00 0.814E-01   0.198E-10 0.103E-04 0.661E-06
   -.309E+00 0.145E+00 -.376E+00   0.308E+00 -.149E+00 0.373E+00   0.426E-02 0.137E-01 0.634E-02   -.437E-05 0.423E-05 0.145E-04
   -.397E-03 -.156E+00 -.164E+00   0.203E-02 0.149E+00 0.152E+00   -.393E-02 0.116E-02 0.103E-01   0.120E-04 -.111E-04 0.471E-05
   0.304E+00 -.373E+00 0.136E+00   -.304E+00 0.372E+00 -.141E+00   -.414E-02 0.874E-02 0.138E-01   0.203E-04 -.103E-04 -.256E-05
   0.815E-02 0.398E+00 0.412E+00   -.712E-02 -.401E+00 -.414E+00   -.275E-02 -.550E-02 -.786E-02   0.249E-06 0.442E-05 -.448E-05
   -.290E+00 0.142E+00 -.107E-01   0.308E+00 -.144E+00 0.257E-01   -.203E-01 0.117E-01 -.179E-02   -.377E-05 0.116E-04 0.129E-05
   0.291E+00 -.103E-01 0.142E+00   -.303E+00 0.203E-01 -.146E+00   0.202E-01 0.197E-02 0.144E-01   -.225E-04 -.119E-05 0.106E-04
   0.184E+00 -.119E+00 -.106E-01   -.190E+00 0.125E+00 0.243E-02   0.267E-02 -.143E-01 -.116E-02   0.102E-04 -.107E-04 -.833E-05
   -.178E+00 -.125E-01 -.123E+00   0.185E+00 0.336E-02 0.123E+00   -.675E-03 -.126E-02 -.875E-02   0.536E-06 0.802E-05 -.114E-04
   -.841E-01 0.237E+01 0.237E+01   0.105E+00 -.247E+01 -.247E+01   -.884E-02 0.794E-01 0.794E-01   -.832E-05 -.963E-05 -.963E-05
   0.999E+00 -.580E+00 -.580E+00   -.998E+00 0.577E+00 0.577E+00   -.140E-01 0.779E-02 0.779E-02   -.257E-04 0.141E-04 0.141E-04
   0.546E-02 -.302E+00 -.302E+00   -.329E-02 0.311E+00 0.311E+00   -.230E-02 -.135E-01 -.135E-01   0.215E-04 -.935E-05 -.935E-05
   -.966E+00 -.576E+00 -.576E+00   0.966E+00 0.572E+00 0.572E+00   0.150E-01 0.848E-02 0.848E-02   0.988E-05 0.507E-05 0.507E-05
 -----------------------------------------------------------------------------------------------
   -.302E-07 0.287E+00 0.287E+00   0.136E-11 -.115E-11 0.238E-12   -.486E-16 -.287E+00 -.287E+00   0.204E-09 -.176E-05 -.176E-05
 
 
 POSITION                                       TOTAL-FORCE (eV/Angst)
 -----------------------------------------------------------------------------------
      0.00000      0.02828      0.02828         0.000000      0.021760      0.021760
      0.00000      2.06228      2.06228         0.000000     -0.051418     -0.051418
      0.00000      4.12455      4.12455         0.000000     -0.015120     -0.015120
      0.00000      6.18683      6.18683         0.000000     -0.044383     -0.044383
      2.06228      0.00000      2.06228        -0.015856     -0.040855     -0.028876
      2.06228      2.06228      4.12455        -0.006107      0.017574      0.031983
      2.06228      4.12455      6.18683         0.006811      0.034748      0.014997
      2.06228      6.18683      8.24910         0.015978     -0.030480     -0.049672
      4.12455      0.00000      4.12455        -0.012641     -0.029790     -0.006605
      4.12455      2.06228      6.18683        -0.000603      0.024414      0.023555
      4.12455      4.12455      8.24910         0.012641     -0.006605     -0.029790
      4.12455      6.18683     10.31138         0.000603      0.023555      0.024414
      6.18683      0.00000      6.18683        -0.015978     -0.049672     -0.030480
      6.18683      2.06228      8.24910         0.015856     -0.028876     -0.040855
      6.18683      4.12455     10.31138         0.006107      0.031983      0.017574
      6.18683      6.18683     12.37365        -0.006811      0.014997      0.034748
      2.06228      2.06228      0.00000        -0.015856     -0.028876     -0.040855
      2.06228      4.12455      2.06228        -0.006107      0.031983      0.017574
      2.06228      6.18683      4.12455         0.006811      0.014997      0.034748
      2.06228      8.24910      6.18683         0.015978     -0.049672     -0.030480
      4.12455      2.06228      2.06228         0.025070     -0.015630     -0.015630
      4.12455      4.12455      4.12455         0.001122      0.033629      0.033629
      4.12455      6.18683      6.18683        -0.020645     -0.011884     -0.011884
      4.12455      8.24910      8.24910         0.000460     -0.001336     -0.001336
      6.18683      2.06228      4.12455         0.030817     -0.007702      0.006118
      6.18683      4.12455      6.18683        -0.030439      0.014013     -0.008214
      6.18683      6.18683      8.24910        -0.002452     -0.003232      0.008444
      6.18683      8.24910     10.31138         0.006311      0.017960     -0.001449
      8.24910      2.06228      6.18683         0.000000     -0.005174     -0.020451
      8.24910      4.12455      8.24910         0.000000     -0.040669     -0.005994
      8.24910      6.18683     10.31138         0.000000      0.004636      0.000537
      8.24910      8.24910     12.37365         0.000000      0.001674     -0.040340
      4.12455      4.12455      0.00000        -0.012641     -0.006605     -0.029790
      4.12455      6.18683      2.06228        -0.000603      0.023555      0.024414
      4.12455      8.24910      4.12455         0.012641     -0.029790     -0.006605
      4.12455     10.31138      6.18683         0.000603      0.024414      0.023555
      6.18683      4.12455      2.06228         0.030817      0.006118     -0.007702
      6.18683      6.18683      4.12455        -0.030439     -0.008214      0.014013
      6.18683      8.24910      6.18683        -0.002452      0.008444     -0.003232
      6.18683     10.31138      8.24910         0.006311     -0.001449      0.017960
      8.24910      4.12455      4.12455         0.000000      0.010273      0.010273
      8.24910      6.18683      6.18683         0.000000     -0.007005     -0.007005
      8.24910      8.24910      8.24910         0.000000      0.036423      0.036423
      8.24910     10.31138     10.31138         0.000000     -0.012103     -0.012103
     10.31138      4.12455      6.18683         0.030439      0.014013     -0.008214
     10.31138      6.18683      8.24910         0.002452     -0.003232      0.008444
     10.31138      8.24910     10.31138        -0.006311      0.017960     -0.001449
     10.31138     10.31138     12.37365        -0.030817     -0.007702      0.006118
      6.18683      6.18683      0.00000        -0.015978     -0.030480     -0.049672
      6.18683      8.24910      2.06228         0.015856     -0.040855     -0.028876
      6.18683     10.31138      4.12455         0.006107      0.017574      0.031983
      6.18683     12.37365      6.18683        -0.006811      0.034748      0.014997
      8.24910      6.18683      2.06228         0.000000     -0.020451     -0.005174
      8.24910      8.24910      4.12455         0.000000     -0.005994     -0.040669
      8.24910     10.31138      6.18683         0.000000      0.000537      0.004636
      8.24910     12.37365      8.24910         0.000000     -0.040340      0.001674
     10.31138      6.18683      4.12455         0.030439     -0.008214      0.014013
     10.31138      8.24910      6.18683         0.002452      0.008444     -0.003232
     10.31138     10.31138      8.24910        -0.006311     -0.001449      0.017960
     10.31138     12.37365     10.31138        -0.030817      0.006118     -0.007702
     12.37365      6.18683      6.18683         0.020645     -0.011884     -0.011884
     12.37365      8.24910      8.24910        -0.000460     -0.001336     -0.001336
     12.37365     10.31138     10.31138        -0.025070     -0.015630     -0.015630
     12.37365     12.37365     12.37365        -0.001122      0.033629      0.033629
      2.06228      2.06228      2.06228         0.013194      0.005167      0.005167
      2.06228      4.12455      4.12455         0.000099     -0.004292     -0.004292
      2.06228      6.18682      6.18682        -0.015034      0.004478      0.004478
      2.06228      8.24910      8.24910        -0.012212     -0.011210     -0.011210
      4.12455      2.06228      4.12455         0.003298     -0.009317     -0.008802
      4.12455      4.12455      6.18683        -0.006039     -0.008861     -0.010398
      4.12455      6.18682      8.24910         0.002813      0.013188      0.009506
      4.12455      8.24910     10.31138        -0.007715      0.009791      0.011951
      6.18682      2.06228      6.18682         0.001717     -0.009822     -0.008429
      6.18682      4.12455      8.24910        -0.002751      0.003704      0.010039
      6.18682      6.18682     10.31137         0.002286     -0.001599     -0.005684
      6.18682      8.24910     12.37365         0.003404      0.008959      0.008488
      8.24910      2.06228      8.24910         0.000000      0.108693     -0.012975
      8.24910      4.12455     10.31138         0.000000     -0.001399      0.015534
      8.24910      6.18682     12.37365         0.000000      0.017097      0.001967
      8.24910      8.24910     14.43593         0.000000     -0.009886      0.101895
      4.12455      4.12455      2.06228         0.003298     -0.008802     -0.009317
      4.12455      6.18683      4.12455        -0.006039     -0.010398     -0.008861
      4.12455      8.24910      6.18682         0.002813      0.009506      0.013188
      4.12455     10.31138      8.24910        -0.007715      0.011951      0.009791
      6.18683      4.12455      4.12455        -0.000282     -0.014607     -0.014607
      6.18683      6.18683      6.18683         0.018246      0.014465      0.014465
      6.18683      8.24910      8.24910        -0.001772     -0.009101     -0.009101
      6.18683     10.31138     10.31138        -0.013599      0.011332      0.011332
      8.24910      4.12455      6.18682         0.000000      0.007384      0.012239
      8.24910      6.18683      8.24910         0.000000     -0.041681     -0.008350
      8.24910      8.24910     10.31137         0.000000     -0.010628     -0.036792
      8.24910     10.31138     12.37365         0.000000      0.008579      0.014373
     10.31138      4.12455      8.24910         0.002751      0.003704      0.010039
     10.31138      6.18683     10.31138        -0.002286     -0.001599     -0.005684
     10.31138      8.24910     12.37365        -0.003404      0.008959      0.008488
     10.31138     10.31138     14.43593        -0.001717     -0.009822     -0.008429
      6.18682      6.18682      2.06228         0.001717     -0.008429     -0.009822
      6.18682      8.24910      4.12455        -0.002751      0.010039      0.003704
      6.18682     10.31137      6.18682         0.002286     -0.005684     -0.001599
      6.18682     12.37365      8.24910         0.003404      0.008488      0.008959
      8.24910      6.18682      4.12455         0.000000      0.012239      0.007384
      8.24910      8.24910      6.18683         0.000000     -0.008350     -0.041681
      8.24910     10.31137      8.24910         0.000000     -0.036792     -0.010628
      8.24910     12.37365     10.31138         0.000000      0.014373      0.008579
     10.31137      6.18682      6.18682        -0.018246      0.014465      0.014465
     10.31137      8.24910      8.24910         0.001772     -0.009101     -0.009101
     10.31137     10.31137     10.31137         0.013599      0.011332      0.011332
     10.31137     12.37365     12.37365         0.000282     -0.014607     -0.014607
     12.37365      6.18682      8.24910        -0.002813      0.013188      0.009506
     12.37365      8.24910     10.31138         0.007715      0.009791      0.011951
     12.37365     10.31137     12.37365        -0.003298     -0.009317     -0.008802
     12.37365     12.37365     14.43593         0.006039     -0.008861     -0.010398
      8.24910      8.24910      2.06228         0.000000     -0.012975      0.108693
      8.24910     10.31138      4.12455         0.000000      0.015534     -0.001399
      8.24910     12.37365      6.18682         0.000000      0.001967      0.017097
      8.24910     14.43593      8.24910         0.000000      0.101895     -0.009886
     10.31138      8.24910      4.12455         0.002751      0.010039      0.003704
     10.31138     10.31138      6.18683        -0.002286     -0.005684     -0.001599
     10.31138     12.37365      8.24910        -0.003404      0.008488      0.008959
     10.31138     14.43593     10.31138        -0.001717     -0.008429     -0.009822
     12.37365      8.24910      6.18682        -0.002813      0.009506      0.013188
     12.37365     10.31138      8.24910         0.007715      0.011951      0.009791
     12.37365     12.37365     10.31137        -0.003298     -0.008802     -0.009317
     12.37365     14.43593     12.37365         0.006039     -0.010398     -0.008861
     14.43593      8.24910      8.24910         0.012212     -0.011210     -0.011210
     14.43593     10.31138     10.31138        -0.013194      0.005167      0.005167
     14.43593     12.37365     12.37365        -0.000099     -0.004292     -0.004292
     14.43593     14.43593     14.43593         0.015034      0.004478      0.004478
 -----------------------------------------------------------------------------------
    total drift:                               -0.000000      0.000019      0.000019


--------------------------------------------------------------------------------------------------------



  FREE ENERGIE OF THE ION-ELECTRON SYSTEM (eV)
  ---------------------------------------------------
  free  energy   TOTEN  =     -1238.46781400 eV

  energy  without entropy=    -1238.44883520  energy(sigma->0) =    -1238.45832460
 


--------------------------------------------------------------------------------------------------------


    POTLOK:  cpu time    0.67: real time    0.67


--------------------------------------------------------------------------------------------------------


     LOOP+:  cpu time 5167.90: real time 5335.87
    4ORBIT:  cpu time    0.00: real time    0.00

 total amount of memory used by VASP on root node   413965. kBytes
========================================================================

   base      :      30000. kBytes
   nonl-proj :     130869. kBytes
   fftplans  :      68359. kBytes
   grid      :      60493. kBytes
   one-center:       1990. kBytes
   wavefun   :     122254. kBytes
 
  
  
 General timing and accounting informations for this job:
 ========================================================
  
                  Total CPU time used (sec):     5193.972
                            User time (sec):     5124.092
                          System time (sec):       69.880
                         Elapsed time (sec):     5367.232
  
                   Maximum memory used (kb):      484364.
                   Average memory used (kb):           0.
  
                          Minor page faults:       189634
                          Major page faults:           22
                 Voluntary context switches:      4097297
